48
Lattice="9.28769986 0.0 0.0 0.0 5.99019991 0.0 -1.8245684 0.0 8.21245818" Properties=species:S:1:pos:R:3 energy=-29106.8034141445 alpha="590.08904489724 0.5662075873426431 277.7546667579395 0.5662075873426431 502.713366877434 -1.15346308981642 277.7546667579395 -1.15346308981642 573.139235519177" dipole="0.59008904489724 0.502713366877434 0.573139235519177" pbc="T T T"
C        0.85270199       3.21557995       1.79924997
C        7.59794989       0.37542199       2.14802997
C        6.57470990       2.66845996       6.61034990
C       -0.20553000       5.63459992       5.98055991
H        0.03085140       3.58888995       1.21451998
H        8.46887988       0.71879199       2.66661996
H        7.47353989       2.27202997       7.08003990
H       -1.08607998       5.22957992       5.49959992
C        1.40200998       3.98261994       2.81570996
C        6.87122990       1.15565998       1.26261998
C        6.00771991       1.98761997       5.57896992
C        0.40779299       4.95553993       7.00453990
H        0.88903199       4.91056993       3.12260995
H        7.22211989       2.15456997       0.96776699
H        6.41176991       1.01070999       5.31686992
H        0.02863330       3.99225994       7.33580989
C        2.61652996       3.56984995       3.44364995
C        5.75334992       0.59097599       0.59365299
C        4.91637993       2.50396996       4.81907993
C        1.62772998       5.43208992       7.57512989
C        3.23639995       4.27971994       4.48879993
C        3.30213995       1.27299998       7.75639989
C        4.32641994       1.75679997       3.78233994
C        4.12869994       4.74448993       0.37791799
H        2.88855996       5.25627992       4.79485993
H        3.66375995       2.24476997       7.41343989
H        4.77447993       0.82201299       3.52027995
H        3.86348994       3.75863994       0.78345499
C        4.37186994       3.80872994       5.14656992
C        2.15627997       0.71592799       7.09853990
C        3.20303995       2.26201997       3.06293995
C        5.29848992       5.25667992       0.95485299
C        2.55880996       1.48370998       2.05275997
C        5.98032991       4.53978993       1.97361997
C        5.00676993       4.48439993       6.24199991
C        1.50621998       1.35130998       6.01588991
H        2.97095996       0.53573399       1.80957997
H        5.60909992       3.52736995       2.30992997
H        4.64286993       5.51705992       6.47894990
H        1.90450997       2.33670997       5.66859992
C        1.45395998       1.98091997       1.41314998
C        7.11333990       5.07457993       2.52540996
C        6.06004991       3.95381994       6.94972990
C        0.35186799       0.83115099       5.48074992
H        1.00861999       1.42580998       0.59848199
H        7.61930989       4.58485993       3.34356995
H        6.47047990       4.56551993       7.76296989
H       -0.14528000       1.37034998       4.68936993
48
Lattice="9.28769986 0.0 0.0 0.0 5.99019991 0.0 -1.8245684 0.0 8.21245818" Properties=species:S:1:pos:R:3 energy=-29106.8784368525 alpha="582.835948897262 2.2760089231400453 274.1425290898895 2.2760089231400453 498.648777407915 0.262976102821912 274.1425290898895 0.262976102821912 570.467861726786" dipole="0.5828359488972621 0.498648777407915 0.5704678617267861" pbc="T T T"
C        0.86718399       3.22992995       1.79272997
C        7.56477989       0.37891399       2.16936997
C        6.55888990       2.65491996       6.60087990
C       -0.16115200       5.63484992       5.98845991
H       -0.07688780       3.49712995       1.32087998
H        8.43206988       0.83193199       2.62316996
H        7.41937989       2.20176997       7.10958990
H       -1.10902998       5.29023992       5.57010992
C        1.39923998       3.96151994       2.83996996
C        6.89816990       1.14831998       1.27175998
C        5.97820991       1.98095997       5.54738992
C        0.42955099       4.92613993       7.00159990
H        0.97660299       4.92048993       3.15957995
H        7.24368989       2.14994997       1.00545999
H        6.33536991       0.99319799       5.25375992
H       -0.01369770       4.00425994       7.38344989
C        2.62635996       3.53904995       3.46487995
C        5.78011991       0.60616599       0.58974099
C        4.88316993       2.48688996       4.79361993
C        1.61003998       5.43887992       7.61330989
C        3.24924995       4.30339994       4.47328993
C        3.28581995       1.24326998       7.73718989
C        4.31881994       1.78024997       3.73239994
C        4.13242994       4.75148993       0.40241099
H        2.72896996       5.19993992       4.75595993
H        3.70063995       2.18174997       7.39746989
H        4.70733993       0.82388799       3.45633995
H        3.71353995       3.76355994       0.64778799
C        4.38003994       3.78973994       5.15480992
C        2.18525997       0.69888299       7.10639990
C        3.18243995       2.26658997       3.07284995
C        5.28097992       5.29424992       0.98977799
C        2.57874996       1.49823998       2.02799997
C        5.97504991       4.53682993       1.96805997
C        5.02092993       4.48620993       6.21981991
C        1.52168998       1.39417998       6.02474991
H        2.99735996       0.55289199       1.78521997
H        5.59054992       3.51084995       2.25548997
H        4.57410993       5.45003992       6.56330990
H        1.95806997       2.35417997       5.62708992
C        1.44010998       1.98063997       1.39334998
C        7.09333990       5.07830993       2.56008996
C        6.06772991       3.93801994       6.93408990
C        0.37582199       0.87600599       5.49192992
H        0.95020299       1.36092998       0.64073799
H        7.61116989       4.50463993       3.30805995
H        6.56550990       4.48875993       7.74293989
H       -0.14075900       1.34425998       4.65540993
48
Lattice="9.28769986 0.0 0.0 0.0 5.99019991 0.0 -1.8245684 0.0 8.21245818" Properties=species:S:1:pos:R:3 energy=-29106.9556640453 alpha="577.145528003964 4.59318119085333 270.90832175304047 4.59318119085333 488.931700824509 -0.00034064650735095303 270.90832175304047 -0.00034064650735095303 565.675771781683" dipole="0.577145528003964 0.488931700824509 0.565675771781683" pbc="T T T"
C        0.87085899       3.21733995       1.81676997
C        7.54409989       0.38560999       2.24378997
C        6.53578990       2.63756996       6.54738990
C       -0.14517500       5.64376992       5.98610991
H       -0.10041600       3.59968995       1.47742998
H        8.46098988       0.76029899       2.69930996
H        7.30612989       2.18464997       7.19436989
H       -1.09753998       5.25574992       5.59087992
C        1.43345998       3.93547994       2.82689996
C        6.91924990       1.12436998       1.23829998
C        5.96778991       1.93720997       5.50803992
C        0.45757399       4.92624993       6.99995990
H        0.98521599       4.86571993       3.15554995
H        7.27781989       2.12704997       1.01592999
H        6.33976991       0.94827999       5.23751992
H       -0.00083340       4.00994994       7.38886989
C        2.61391996       3.51302995       3.48524995
C        5.75133992       0.59778299       0.57803799
C        4.87652993       2.49149996       4.77858993
C        1.62689998       5.45991992       7.60917989
C        3.24893995       4.28780994       4.45842993
C        3.30863995       1.23628998       7.73499989
C        4.29978994       1.79556997       3.69595995
C        4.11620994       4.77203993       0.39743399
H        2.85103996       5.22905992       4.78490993
H        3.66074995       2.17913997       7.36356989
H        4.68035993       0.83557499       3.41009995
H        3.75017994       3.79552994       0.75221199
C        4.36962994       3.78823994       5.16026992
C        2.15976997       0.69441299       7.11617990
C        3.17465995       2.26242997       3.06650995
C        5.25353992       5.29983992       1.01912998
C        2.56785996       1.54440998       2.00637997
C        5.98833991       4.56733993       1.97860997
C        5.01897993       4.48464993       6.22360991
C        1.54428998       1.40507998       6.06214991
H        2.98470996       0.61093299       1.72183997
H        5.57708992       3.54769995       2.23678997
H        4.62078993       5.48537992       6.51014990
H        2.02315997       2.35855997       5.68407992
C        1.44560998       1.97955997       1.40166998
C        7.09088990       5.07452993       2.59367996
C        6.07107991       3.93354994       6.90354990
C        0.39663999       0.89270799       5.50102992
H        0.94951399       1.37614998       0.63320099
H        7.67444989       4.48111993       3.26954995
H        6.50533990       4.49470993       7.74270989
H       -0.09585050       1.45247998       4.69089993
48
Lattice="9.28769986 0.0 0.0 0.0 5.99019991 0.0 -1.8245684 0.0 8.21245818" Properties=species:S:1:pos:R:3 energy=-29106.9319017652 alpha="579.133575512288 0.9218929472629824 274.3727624239955 0.9218929472629824 486.788461057965 -0.37220839589431 274.3727624239955 -0.37220839589431 571.203709044158" dipole="0.579133575512288 0.48678846105796497 0.5712037090441581" pbc="T T T"
C        0.83397499       3.19706995       1.85418997
C        7.53309989       0.40895999       2.27922997
C        6.51379990       2.61613996       6.51121990
C       -0.14477200       5.66340992       5.97764991
H       -0.05411710       3.56815995       1.30452998
H        8.41500988       0.78855199       2.80688996
H        7.32918989       2.12924997       7.08645990
H       -1.04285998       5.26846992       5.46622992
C        1.45627998       3.95540994       2.82528996
C        6.93191990       1.07107998       1.24651998
C        5.97211991       1.90939997       5.47903992
C        0.46228099       4.96916993       6.97817990
H        0.96481499       4.85760993       3.13264995
H        7.30309989       2.01863997       0.88144199
H        6.32274991       0.90700899       5.22871992
H        0.09617520       3.99196994       7.32142989
C        2.60903996       3.51783995       3.48845995
C        5.76592992       0.58385999       0.60353799
C        4.89353993       2.48108996       4.75312993
C        1.63920998       5.44374992       7.58027989
C        3.25503995       4.26314994       4.48855993
C        3.31305995       1.25396998       7.72642989
C        4.31701994       1.77989997       3.71282995
C        4.11000994       4.77871993       0.42526199
H        2.91519996       5.26319992       4.67324993
H        3.70898995       2.19233997       7.40319989
H        4.78535993       0.86001699       3.40032995
H        3.74266994       3.81044994       0.79706599
C        4.36133994       3.77874994       5.14594992
C        2.17482997       0.73430699       7.15108989
C        3.16768995       2.27269997       3.04575996
C        5.24475992       5.30977992       1.01827998
C        2.57260996       1.54666998       1.98868997
C        5.96863991       4.57669993       2.01295997
C        4.99438993       4.49031993       6.21143991
C        1.53687998       1.38786998       6.08412991
H        3.04002996       0.63760599       1.68179998
H        5.65768992       3.53349995       2.28772997
H        4.68300993       5.52854992       6.43975991
H        1.97545997       2.38884996       5.78619991
C        1.40293998       2.00583997       1.39365998
C        7.10789990       5.08118993       2.61466996
C        6.05806991       3.92209994       6.86424990
C        0.41258999       0.89097799       5.51914992
H        0.98927299       1.41506998       0.55801599
H        7.63382989       4.49864993       3.34868995
H        6.51647990       4.44311993       7.71677989
H       -0.11660200       1.47496998       4.73890993
48
Lattice="9.28769986 0.0 0.0 0.0 5.99019991 0.0 -1.8245684 0.0 8.21245818" Properties=species:S:1:pos:R:3 energy=-29106.835714367 alpha="587.134768297481 4.51258494002066 275.434276341618 4.51258494002066 490.835026636826 1.08932169188842 275.434276341618 1.08932169188842 569.680867499628" dipole="0.587134768297481 0.490835026636826 0.569680867499628" pbc="T T T"
C        0.79829299       3.21071995       1.86000997
C        7.55059989       0.39969899       2.29930997
C        6.52341990       2.59634996       6.50340990
C       -0.15745600       5.67551992       5.94125991
H       -0.10952300       3.61340995       1.34084998
H        8.36547988       0.96318399       2.77041996
H        7.42516989       2.20302997       7.02603990
H       -1.06325998       5.25521992       5.44923992
C        1.39917998       3.99553994       2.82138996
C        6.94584990       1.06567998       1.25471998
C        5.97859991       1.90776997       5.45760992
C        0.45945999       4.97153993       6.95562990
H        1.06382998       4.96374993       3.11862995
H        7.38492989       1.97914997       0.88955199
H        6.32418991       0.91222999       5.17317992
H        0.06270080       3.97931994       7.23117989
C        2.62390996       3.52395995       3.47019995
C        5.78797991       0.57586399       0.59435399
C        4.90252993       2.46854996       4.74726993
C        1.67137998       5.45043992       7.59280989
C        3.23433995       4.26640994       4.48704993
C        3.35384995       1.27565998       7.79265989
C        4.31146994       1.76143997       3.69440995
C        4.09341994       4.76952993       0.43359199
H        2.84216996       5.24202992       4.73006993
H        3.75023994       2.20230997       7.44684989
H        4.76158993       0.82685699       3.37536995
H        3.64471995       3.81234994       0.72914799
C        4.38294994       3.74878994       5.14246992
C        2.19600997       0.73388899       7.17326989
C        3.19599995       2.25247997       3.05070996
C        5.26422992       5.28638992       1.04547998
C        2.55728996       1.54411998       1.96554997
C        5.96687991       4.57515993       2.05771997
C        4.99812993       4.48570993       6.17541991
C        1.53152998       1.41847998       6.10547991
H        3.03053996       0.64643599       1.61845998
H        5.58516992       3.56136995       2.30399997
H        4.59443993       5.46919992       6.45960990
H        1.87146997       2.43547996       5.74336992
C        1.41104998       1.99315997       1.39425998
C        7.07989990       5.10040992       2.63872996
C        6.04096991       3.89518994       6.83863990
C        0.39327399       0.90555299       5.51910992
H        0.91780299       1.49541998       0.53457999
H        7.56414989       4.54311993       3.42050995
H        6.58838990       4.43821993       7.62051989
H       -0.10665400       1.46451998       4.68904993
48
Lattice="9.28769986 0.0 0.0 0.0 5.99019991 0.0 -1.8245684 0.0 8.21245818" Properties=species:S:1:pos:R:3 energy=-29106.8443488568 alpha="598.373552082524 -0.4152685379108515 285.91465659995754 -0.4152685379108515 496.310819832831 -0.419749846756478 285.91465659995754 -0.419749846756478 582.353297084217" dipole="0.5983735520825241 0.496310819832831 0.582353297084217" pbc="T T T"
C        0.79024499       3.25114995       1.85138997
C        7.56043989       0.40507799       2.28184997
C        6.56262990       2.60569996       6.49182990
C       -0.14910100       5.65922992       5.93101991
H       -0.21416400       3.56933995       1.45545998
H        8.45279988       0.74316099       2.83364996
H        7.44267989       2.21693997       7.05688990
H       -1.09876998       5.26615992       5.49346992
C        1.39573998       3.99308994       2.83084996
C        6.97861990       1.08677998       1.25933998
C        6.00209991       1.90263997       5.45210992
C        0.48102799       4.96570993       6.92745990
H        0.99610599       4.94940993       3.05919995
H        7.33684989       2.06277997       0.99191999
H        6.41024991       0.94529299       5.11809992
H        0.05925390       4.01091994       7.29162989
C        2.59494996       3.53897995       3.42684995
C        5.82805991       0.53237099       0.62451999
C        4.88909993       2.44582996       4.73818993
C        1.64689998       5.47130992       7.59238989
C        3.23113995       4.24583994       4.45906993
C        3.34033995       1.28097998       7.82102988
C        4.31280994       1.74167997       3.67100995
C        4.11125994       4.76004993       0.43277499
H        2.79022996       5.13435992       4.89005993
H        3.74159994       2.23062997       7.53851989
H        4.66926993       0.74566399       3.38737995
H        3.70392995       3.80988994       0.79410599
C        4.35250994       3.74873994       5.10546992
C        2.21933997       0.76240699       7.16073989
C        3.16527995       2.24969997       3.02480996
C        5.25977992       5.25163992       1.04809998
C        2.56169996       1.54130998       1.96455997
C        5.94851991       4.56662993       2.07988997
C        5.01475993       4.44451993       6.15492991
C        1.50532998       1.45446998       6.12909991
H        2.97839996       0.61383599       1.59771998
H        5.56191992       3.60305995       2.44302996
H        4.59614993       5.40377992       6.46840990
H        1.97666997       2.42275996       5.79718991
C        1.38834998       2.02774997       1.40850998
C        7.05827990       5.12024992       2.71723996
C        6.06598991       3.87996994       6.83734990
C        0.38729099       0.94547399       5.51262992
H        0.94255999       1.39297998       0.60448999
H        7.57121989       4.56533993       3.49330995
H        6.54089990       4.48700993       7.61779989
H       -0.05967430       1.53175998       4.66188993
48
Lattice="9.28769986 0.0 0.0 0.0 5.99019991 0.0 -1.8245684 0.0 8.21245818" Properties=species:S:1:pos:R:3 energy=-29106.903406787 alpha="594.448315778372 -0.36435025550197353 280.55390451979247 -0.36435025550197353 494.275991267242 -2.9543885013576 280.55390451979247 -2.9543885013576 572.963169742625" dipole="0.5944483157783721 0.494275991267242 0.5729631697426251" pbc="T T T"
C        0.78587399       3.24898995       1.83775997
C        7.59093989       0.35813399       2.30551997
C        6.61517990       2.61389996       6.47037990
C       -0.11462200       5.69297992       5.92357991
H       -0.20944600       3.56458995       1.41602998
H        8.52895987       0.74920699       2.75120996
H        7.45098989       2.12296997       7.02283990
H       -1.05122998       5.28698992       5.46626992
C        1.39168998       3.99803994       2.81166996
C        6.99139990       1.09250998       1.27910998
C        6.02860991       1.91694997       5.44554992
C        0.50674799       4.96809993       6.92696990
H        0.94708599       4.87391993       3.22092995
H        7.25952989       2.08241997       0.95793299
H        6.44914990       0.95238799       5.14318992
H        0.10077700       4.01242994       7.30958989
C        2.59704996       3.52904995       3.40960995
C        5.82477991       0.53897899       0.62424299
C        4.88652993       2.41397996       4.71426993
C        1.65479998       5.48029992       7.59313989
C        3.20982995       4.22598994       4.44314993
C        3.32954995       1.24862998       7.84537988
C        4.27284994       1.74048997       3.66489995
C        4.11761994       4.76698993       0.39980699
H        2.73735996       5.14798992       4.78043993
H        3.68705995       2.23242997       7.61257989
H        4.65713993       0.74190599       3.39959995
H        3.71202995       3.81348994       0.74322699
C        4.36224994       3.71019995       5.07691993
C        2.18336997       0.76337999       7.16956989
C        3.15433995       2.27215997       3.00199996
C        5.29697992       5.24913992       1.03801998
C        2.51536996       1.56249998       1.95773997
C        5.94549991       4.56109993       2.14476997
C        5.00735993       4.39863994       6.15316991
C        1.50996998       1.48515998       6.14580991
H        2.93851996       0.59853799       1.68006998
H        5.54717992       3.61405995       2.49442996
H        4.69537993       5.40151992       6.41675991
H        1.91579997       2.46969996       5.80643991
C        1.36676998       2.04842997       1.41905998
C        7.01352990       5.13971992       2.74595996
C        6.09016991       3.89764994       6.83414990
C        0.39803199       0.95688699       5.52838992
H        0.81593299       1.44203998       0.65852399
H        7.50597989       4.62808993       3.56940995
H        6.49874990       4.42328993       7.70429989
H       -0.13490000       1.55058998       4.73098993
48
Lattice="9.28769986 0.0 0.0 0.0 5.99019991 0.0 -1.8245684 0.0 8.21245818" Properties=species:S:1:pos:R:3 energy=-29106.8651382321 alpha="600.491649584044 -1.54557609344619 286.908487328224 -1.54557609344619 487.909838283139 1.264269255982305 286.908487328224 1.264269255982305 574.646398218306" dipole="0.600491649584044 0.487909838283139 0.574646398218306" pbc="T T T"
C        0.76311999       3.27111995       1.83493997
C        7.60473989       0.36702999       2.28565997
C        6.63497990       2.62770996       6.44021991
C       -0.07586590       5.70355992       5.94442991
H       -0.18177700       3.64236995       1.34847998
H        8.51586987       0.78151599       2.77095996
H        7.52069989       2.20988997       6.96855990
H       -0.96785399       5.30672992       5.40353992
C        1.38201998       4.00257994       2.80791996
C        6.96683990       1.04567998       1.30974998
C        6.04386991       1.92547997       5.40961992
C        0.51016399       4.98466993       6.93255990
H        0.94071699       4.86733993       3.25191995
H        7.44371989       1.95365997       0.99111999
H        6.40142991       0.91865199       5.17057992
H        0.10458000       3.98382994       7.16375989
C        2.59997996       3.52539995       3.40613995
C        5.81763991       0.55108499       0.64595499
C        4.90499993       2.40675996       4.70774993
C        1.67998998       5.47122992       7.57885989
C        3.22117995       4.20938994       4.45419993
C        3.30768995       1.24879998       7.84115988
C        4.23674994       1.72162997       3.66596995
C        4.16987994       4.77122993       0.39475899
H        2.87637996       5.21990992       4.70776993
H        3.66307995       2.22471997       7.55188989
H        4.61544993       0.74943999       3.29016995
H        3.70546995       3.81760994       0.63014399
C        4.37393994       3.68881995       5.08875993
C        2.16559997       0.77094899       7.20950989
C        3.16297995       2.27789997       2.98150996
C        5.31527992       5.22920992       1.03937998
C        2.47405996       1.56391998       1.96533997
C        5.89510991       4.58553993       2.15312997
C        5.00849993       4.39055994       6.15261991
C        1.52236998       1.50648998       6.15342991
H        2.84203996       0.57224199       1.66503998
H        5.50411992       3.64027995       2.48198996
H        4.57863993       5.35011992       6.37722991
H        1.85603997       2.52933996       5.89758991
C        1.31890998       2.02748997       1.38497998
C        7.01560990       5.13549992       2.78286996
C        6.10472991       3.87585994       6.82562990
C        0.41725299       0.98086499       5.55433992
H        0.75686099       1.44542998       0.61357199
H        7.40318989       4.62405993       3.67152995
H        6.51890990       4.45459993       7.65653989
H       -0.16352700       1.56616998       4.78642993
48
Lattice="9.28769986 0.0 0.0 0.0 5.99019991 0.0 -1.8245684 0.0 8.21245818" Properties=species:S:1:pos:R:3 energy=-29106.8976925147 alpha="598.73079458555 -2.75226765871189 284.212299671503 -2.75226765871189 500.775093642963 1.50984558340377 284.212299671503 1.50984558340377 573.232143458932" dipole="0.59873079458555 0.500775093642963 0.573232143458932" pbc="T T T"
C        0.74630599       3.28618995       1.81000997
C        7.57824989       0.31842200       2.32761997
C        6.63814990       2.63364996       6.38913991
C       -0.06534380       5.71811992       5.94010991
H       -0.20017600       3.72807995       1.40210998
H        8.49770987       0.75297199       2.78466996
H        7.56510989       2.27647997       6.88060990
H       -0.95171099       5.27355992       5.43002992
C        1.38425998       3.99556994       2.82662996
C        6.97600990       1.03467998       1.29007998
C        6.05952991       1.90219997       5.37835992
C        0.52667099       4.96881993       6.93873990
H        0.97393099       4.95729993       3.07499995
H        7.40006989       1.95233997       0.90707699
H        6.44031991       0.91483499       5.09228992
H        0.16861300       3.95373994       7.18616989
C        2.59119996       3.54498995       3.42153995
C        5.78614991       0.54707899       0.65378299
C        4.89630993       2.39923996       4.69254993
C        1.70274997       5.45304992       7.58917989
C        3.27186995       4.20846994       4.45649993
C        3.32265995       1.28843998       7.85614988
C        4.25457994       1.70303997       3.66175995
C        4.18616994       4.72999993       0.36266799
H        2.93839996       5.20090992       4.80420993
H        3.74727994       2.23078997       7.52137989
H        4.64112993       0.71009599       3.33270995
H        3.86578994       3.75517994       0.71579899
C        4.37116994       3.68253995       5.11043992
C        2.17821997       0.79343299       7.21551989
C        3.12686995       2.25859997       2.97650996
C        5.29954992       5.26423992       1.03917998
C        2.42292996       1.53315998       1.95013997
C        5.90377991       4.61396993       2.16908997
C        5.00831993       4.40020994       6.15508991
C        1.53052998       1.52742998       6.19857991
H        2.83714996       0.54851799       1.64709998
H        5.44150992       3.71645995       2.50077996
H        4.57081993       5.29832992       6.52873990
H        1.94862997       2.51250996       5.98046991
C        1.27120998       2.03845997       1.37413998
C        6.99808990       5.12329992       2.79529996
C        6.08887991       3.88269994       6.80205990
C        0.42353999       1.01638999       5.57355992
H        0.83706499       1.39136998       0.58027299
H        7.42365989       4.61101993       3.67074995
H        6.61753990       4.46069993       7.56241989
H       -0.06950460       1.61391998       4.76008993
48
Lattice="9.28769986 0.0 0.0 0.0 5.99019991 0.0 -1.8245684 0.0 8.21245818" Properties=species:S:1:pos:R:3 energy=-29106.837430508 alpha="596.62327911353 -4.609990449833505 283.98614634345347 -4.609990449833505 501.797459033508 1.810592588181005 283.98614634345347 1.810592588181005 570.682651537752" dipole="0.59662327911353 0.501797459033508 0.570682651537752" pbc="T T T"
C        0.75388799       3.29745995       1.81782997
C        7.54447989       0.33564700       2.33032997
C        6.64537990       2.63474996       6.32866991
C       -0.06284440       5.72583992       5.94613991
H       -0.18274300       3.68678995       1.35912998
H        8.49149987       0.66263699       2.81893996
H        7.56150989       2.24157997       6.79719990
H       -0.97404099       5.35102992       5.43383992
C        1.38101998       4.00249994       2.79816996
C        7.00089990       1.00985999       1.28216998
C        6.05467991       1.88301997       5.34612992
C        0.56057199       4.96704993       6.91255990
H        1.06676998       5.00170993       3.08035995
H        7.36419989       1.97813997       0.95701699
H        6.54136990       0.96700999       4.99560993
H        0.16367300       3.99248994       7.23619989
C        2.59930996       3.51806995       3.43516995
C        5.80438991       0.58538999       0.65304499
C        4.89129993       2.38206996       4.69168993
C        1.70748997       5.45321992       7.59012989
C        3.27730995       4.23677994       4.44304993
C        3.34967995       1.31446998       7.87096988
C        4.24405994       1.71616997       3.62558995
C        4.21259994       4.68446993       0.36482399
H        2.81264996       5.16968992       4.82051993
H        3.79069994       2.27423997       7.58436989
H        4.65593993       0.70570599       3.39796995
H        3.83004994       3.69596995       0.61034599
C        4.38160994       3.66834995       5.11110992
C        2.21961997       0.78038299       7.24245989
C        3.08494995       2.21167997       3.01341996
C        5.26255992       5.28478992       1.06502998
C        2.38749996       1.53258998       1.96219997
C        5.87726991       4.60838993       2.15573997
C        4.98476993       4.41053993       6.18751991
C        1.52980998       1.54946998       6.24948991
H        2.78521996       0.55171799       1.60939998
H        5.45276992       3.70651995       2.50613996
H        4.59182993       5.35576992       6.48393990
H        1.94125997       2.48938996       5.91605991
C        1.26120998       2.04195997       1.38231998
C        6.98242990       5.10276992       2.81279996
C        6.11660991       3.88570994       6.76337990
C        0.43313399       1.03477998       5.59166992
H        0.69137699       1.55508998       0.56954999
H        7.45717989       4.53144993       3.63362995
H        6.60490990       4.43450993       7.57010989
H       -0.03692270       1.60548998       4.75414993
48