48
Lattice="9.45199986 0.0 0.0 0.0 6.00739991 0.0 -1.99585319 0.0 8.30566315" Properties=species:S:1:pos:R:3 energy=-29105.4782218469 alpha="670.482403516444 -9.135471325330014 310.5797216795885 -9.135471325330014 527.921975786195 22.10920244300375 310.5797216795885 22.10920244300375 565.929759148488" dipole="0.6704824035164441 0.527921975786195 0.565929759148488" pbc="T T T"
C        0.49404099       3.56110995       1.91931997
C        7.74961989       0.67067599       2.37174997
C        6.79602990       2.52422996       6.04215991
C       -0.06498700       5.45218992       6.14875991
H        9.09804887       4.03754994       1.44337998
H        8.57632987       1.22515998       2.84727996
H        7.79968989       2.18139997       6.40372991
H       -0.83632899       4.86383993       5.61493992
C        1.21460998       4.06194994       3.00925996
C        7.06853990       1.26479998       1.38229998
C        6.10494991       1.78155997       5.05283993
C        0.61457299       4.78682993       7.14920989
H        0.87508599       4.96722993       3.57080995
H        7.33939989       2.26570997       1.10104998
H        6.62956990       0.92805999       4.67370993
H        0.28243800       3.78608994       7.45691989
C        2.45599996       3.53232995       3.50653995
C        5.90964991       0.67011799       0.75661599
C        4.85892993       2.28155997       4.54236993
C        1.67391998       5.44313992       7.87629988
C        3.16207995       4.17421994       4.56238993
C        3.17671995       1.35341998       8.01843988
C        4.10185994       1.64447998       3.49261995
C        4.40509994       4.78511993       0.61750999
H        2.92304996       5.27163992       4.80177993
H        3.62586995       2.30971997       7.66391989
H        4.32963994       0.68915199       3.11658995
H        4.01210994       3.86158994       1.05286998
C        4.37835994       3.55786995       5.07401993
C        2.02579997       0.77134999       7.43095989
C        2.91960996       2.22138997       3.03128996
C        5.54966992       5.33985992       1.19098998
C        2.11788997       1.68915998       1.87988997
C        6.29485991       4.74070993       2.25146997
C        5.08886993       4.20706994       6.06218991
C        1.35671998       1.37649998       6.35674991
H        2.49542996       0.81240199       1.42380998
H        5.96468991       3.79557994       2.60336996
H        4.80779993       5.19146992       6.42968991
H        1.67833998       2.38008996       6.02738991
C        0.97486799       2.29654997       1.42800998
C        7.38721989       5.36562992       2.76525996
C        6.30502991       3.66748995       6.61851990
C        0.21382400       0.81502799       5.78173991
H        0.40670899       1.86922997       0.59736099
H        7.96459988       4.83599993       3.53147995
H        6.92275990       4.32351994       7.26554989
H       -0.26579500       1.27994998       4.95186993
48
Lattice="9.45199986 0.0 0.0 0.0 6.00739991 0.0 -1.99585319 0.0 8.30566315" Properties=species:S:1:pos:R:3 energy=-29105.6449535202 alpha="647.174035975754 -10.0327013647622 303.94078022277597 -10.0327013647622 496.514349389885 11.85241828081255 303.94078022277597 11.85241828081255 549.218803126606" dipole="0.6471740359757541 0.49651434938988503 0.549218803126606" pbc="T T T"
C        0.55983499       3.55963995       1.95329997
C        7.77218989       0.67911899       2.37892996
C        6.79445990       2.48643996       6.02947991
C       -0.07653490       5.46989992       6.18445991
H       -0.27496100       4.12825994       1.58277998
H        8.66811987       1.15604998       2.79846996
H        7.81394988       2.10142997       6.13107991
H       -0.90303799       5.02277993       5.60647992
C        1.19527998       4.08375994       3.02676996
C        7.02745990       1.29453998       1.35444998
C        6.07136991       1.81757997       5.09961992
C        0.66524099       4.83145993       7.17135989
H        0.92764299       5.10949992       3.37539995
H        7.17452989       2.32165997       1.12239998
H        6.53573990       1.00211999       4.58012993
H        0.48651499       3.83159994       7.52376989
C        2.43331996       3.53658995       3.50145995
C        5.91949991       0.65969599       0.72460799
C        4.82108993       2.19967997       4.54379993
C        1.68605998       5.47383992       7.87698988
C        3.20664995       4.12387994       4.51191993
C        3.22443995       1.31146998       8.03654988
C        4.06925994       1.64964998       3.50670995
C        4.38445994       4.79434993       0.57568699
H        3.06563995       5.22648992       4.72694993
H        3.45043995       2.33652997       7.65470989
H        4.35261994       0.67442099       3.16699995
H        4.02291994       3.82238994       0.90351299
C        4.36703994       3.51257995       5.04302993
C        2.08411997       0.78295799       7.45569989
C        2.85823996       2.25534997       3.00612996
C        5.48904992       5.38271992       1.20356998
C        2.09409997       1.68278998       1.96110997
C        6.31235991       4.72527993       2.19101997
C        5.14221992       4.17886994       6.11288991
C        1.30775998       1.36618998       6.36459991
H        2.31381997       0.72110699       1.54793998
H        5.95909991       3.79438994       2.57375996
H        4.77203993       5.20046992       6.32026991
H        1.70563997       2.29893997       5.95081991
C        0.99436799       2.32614997       1.38381998
C        7.40929989       5.36616992       2.77871996
C        6.27802991       3.71738995       6.60269990
C        0.25190800       0.76004599       5.78163991
H        0.56700599       1.85385997       0.49521099
H        7.93374988       4.81098993       3.56623995
H        6.80178990       4.25879994       7.41864989
H       -0.29388700       1.30167998       5.03693993
48
Lattice="9.45199986 0.0 0.0 0.0 6.00739991 0.0 -1.99585319 0.0 8.30566315" Properties=species:S:1:pos:R:3 energy=-29105.6899377626 alpha="626.823259356618 -2.271976920544975 293.222534019617 -2.271976920544975 506.242594009276 20.435880851588202 293.222534019617 20.435880851588202 536.428030332084" dipole="0.626823259356618 0.506242594009276 0.536428030332084" pbc="T T T"
C        0.60835199       3.54025995       1.96219997
C        7.75381989       0.66587699       2.32243997
C        6.78256990       2.48196996       6.02213991
C       -0.10117900       5.43691992       6.22581991
H       -0.27444900       3.99434994       1.54495998
H        8.59480987       1.17132998       2.79110996
H        7.75170989       2.16550997       6.39085991
H       -0.95737199       4.84707993       5.86258991
C        1.26146998       4.15973994       3.02747996
C        7.02302990       1.32903998       1.38518998
C        6.04454991       1.77664997       5.06674993
C        0.62888499       4.84583993       7.18645989
H        0.87886299       5.14867992       3.37211995
H        7.30189989       2.27822997       1.01129999
H        6.42505991       0.84491699       4.68181993
H        0.40588299       3.82987994       7.35675989
C        2.40821996       3.51252995       3.55175995
C        5.95029991       0.67558599       0.72667099
C        4.74269993       2.25299997       4.58155993
C        1.71658997       5.48784992       7.86394988
C        3.29615995       4.10676994       4.44787993
C        3.23634995       1.33763998       8.01733988
C        3.99171994       1.63319998       3.53590995
C        4.36228994       4.80272993       0.56797099
H        2.91309996       4.99564993       4.99232993
H        3.66596995       2.36005997       7.82761988
H        4.37619994       0.74690499       3.02820996
H        4.10964994       3.76336994       0.69846599
C        4.35242994       3.49016995       5.04887993
C        2.11229997       0.76121999       7.42175989
C        2.84541996       2.26508997       2.99246996
C        5.48315992       5.39549992       1.19614998
C        2.04472997       1.65199998       1.99874997
C        6.30224991       4.74682993       2.16276997
C        5.08531993       4.20080994       6.06172991
C        1.36208998       1.41025998       6.41458991
H        2.37223997       0.65010299       1.74485997
H        6.09703991       3.74159994       2.47133996
H        4.64067993       5.12530992       6.54463990
H        1.62970998       2.38465996       6.00958991
C        1.06824998       2.35425997       1.37359998
C        7.37229989       5.35248992       2.75753996
C        6.30130991       3.69455995       6.58629990
C        0.31595000       0.72241499       5.79172991
H        0.50546299       1.95960997       0.52223699
H        7.98110988       4.91765993       3.55153995
H        6.81658990       4.15432994       7.46079989
H       -0.25907000       1.14225998       4.97266993
48
Lattice="9.45199986 0.0 0.0 0.0 6.00739991 0.0 -1.99585319 0.0 8.30566315" Properties=species:S:1:pos:R:3 energy=-29105.9804067118 alpha="612.181908919103 1.98710251638397 287.9373613274885 1.98710251638397 515.945308153423 14.02719540773045 287.9373613274885 14.02719540773045 538.140538604797" dipole="0.612181908919103 0.515945308153423 0.538140538604797" pbc="T T T"
C        0.64679999       3.59742995       1.96553997
C        7.73495989       0.64872499       2.31492997
C        6.74102990       2.46513996       5.99537991
C       -0.10714200       5.43851992       6.24385991
H       -0.23239100       4.00082994       1.49944998
H        8.56637987       1.12823998       2.80202996
H        7.55726989       1.98369997       6.47487990
H       -0.97623499       4.97370993       5.74650992
C        1.30815998       4.19156994       2.98144996
C        7.04613990       1.34470998       1.36728998
C        6.00026991       1.72402997       5.04657993
C        0.59538199       4.79015993       7.24347989
H        0.98786799       5.08163993       3.56227995
H        7.46008989       2.24882997       1.01559999
H        6.31629991       0.71868799       4.81525993
H        0.32720900       3.85232994       7.62533989
C        2.44352996       3.52578995       3.55981995
C        5.91365991       0.71222199       0.74487999
C        4.77569993       2.21784997       4.57122993
C        1.70581997       5.43941992       7.82151988
C        3.23170995       4.17058994       4.48959993
C        3.27356995       1.37870998       8.02729988
C        3.94932994       1.64141998       3.58418995
C        4.41302993       4.80495993       0.57027999
H        2.86094996       5.10426992       4.93268993
H        3.60547995       2.37178997       7.59428989
H        4.30986994       0.71154699       3.09308995
H        4.13367994       3.80735994       0.87384899
C        4.36895994       3.55342995       5.08287993
C        2.16004997       0.80096599       7.39909989
C        2.82900996       2.22877997       3.05236996
C        5.52324992       5.38429992       1.15814998
C        2.07565997       1.58834998       1.99659997
C        6.27367991       4.72742993       2.17331997
C        5.08387993       4.20235994       6.08107991
C        1.37893998       1.41599998       6.38913991
H        2.32883997       0.58457299       1.60957998
H        6.00055991       3.70380995       2.38014996
H        4.55350993       5.08666993       6.56979990
H        1.64804998       2.44030996       6.16816991
C        1.09727998       2.34618997       1.38600998
C        7.34803989       5.39245992       2.71035996
C        6.22364991       3.66474995       6.52360990
C        0.35080399       0.71889299       5.80378991
H        0.48248799       1.92812997       0.58078599
H        7.90873988       4.80848993       3.43462995
H        6.80935990       4.18792994       7.30426989
H       -0.07600240       1.21312998       4.92070993
48
Lattice="9.45199986 0.0 0.0 0.0 6.00739991 0.0 -1.99585319 0.0 8.30566315" Properties=species:S:1:pos:R:3 energy=-29105.4667812882 alpha="607.854493480958 -3.74518839958345 281.361383129836 -3.74518839958345 526.030867443547 9.120476805275711 281.361383129836 9.120476805275711 543.880224668361" dipole="0.607854493480958 0.526030867443547 0.5438802246683611" pbc="T T T"
C        0.68278499       3.62842995       1.89810997
C        7.75023989       0.68041299       2.34384997
C        6.66094990       2.37714996       5.96770991
C       -0.07659380       5.46586992       6.23822991
H       -0.15333200       4.20745994       1.54722998
H        8.66482987       1.04243998       2.76458996
H        7.53612989       1.94032997       6.34852991
H       -0.94090799       5.10830992       5.65942992
C        1.35513998       4.18409994       2.98460996
C        7.07896990       1.32905998       1.31818998
C        5.97173991       1.67144998       5.08926992
C        0.54652299       4.77352993       7.28786989
H        0.99426799       5.15945992       3.37516995
H        7.31250989       2.31749997       1.00907999
H        6.24377991       0.67758799       4.76980993
H        0.19711100       3.94358994       7.81197988
C        2.47874996       3.55498995       3.51092995
C        5.92579991       0.77886599       0.76038499
C        4.78156993       2.27896997       4.54642993
C        1.75561997       5.42731992       7.82748988
C        3.15417995       4.20466994       4.60789993
C        3.24677995       1.39313998       7.99387988
C        3.98834994       1.60190998       3.64161995
C        4.44929993       4.79690993       0.52494699
H        2.98668996       5.25363992       4.72206993
H        3.61967995       2.39494996       7.61583989
H        4.22877994       0.53252699       3.35585995
H        4.06539994       3.93290994       1.02182998
C        4.31584994       3.58615995       5.02736993
C        2.15741997       0.74523799       7.41224989
C        2.79311996       2.17943997       3.10954995
C        5.55755992       5.41816992       1.12372998
C        2.11953997       1.60909998       1.98755997
C        6.23825991       4.72532993       2.14772997
C        5.03250993       4.22025994       6.11694991
C        1.41458998       1.39522998       6.37310991
H        2.37837996       0.60530199       1.57117998
H        5.94405991       3.75127994       2.53568996
H        4.75784993       5.27431992       6.50657990
H        1.62241998       2.37652996       5.97970991
C        1.08056998       2.32842997       1.44444998
C        7.32442989       5.32954992       2.71665996
C        6.23038991       3.64163995       6.50244990
C        0.36734399       0.73300299       5.79100991
H        0.58963399       1.87261997       0.57989999
H        7.95713988       4.84816993       3.45913995
H        6.83754990       4.16465994       7.26493989
H       -0.22871100       1.20972998       4.97948993
48
Lattice="9.45199986 0.0 0.0 0.0 6.00739991 0.0 -1.99585319 0.0 8.30566315" Properties=species:S:1:pos:R:3 energy=-29105.827866399 alpha="606.794378979906 0.6750747451395744 284.429631105401 0.6750747451395744 509.952407600767 6.6659372367426 284.429631105401 6.6659372367426 534.88699040623" dipole="0.6067943789799061 0.509952407600767 0.53488699040623" pbc="T T T"
C        0.72961599       3.62827995       1.86777997
C        7.75574989       0.62763699       2.33540997
C        6.65963990       2.32897997       6.05089991
C       -0.05189630       5.46229992       6.24481991
H       -0.06597680       4.10841994       1.31545998
H        8.61841987       1.08891998       2.74974996
H        7.61466989       2.03164997       6.35225991
H       -0.95253799       4.94147993       5.90860991
C        1.35988998       4.18483994       2.91159996
C        7.12978989       1.34495998       1.34376998
C        5.85904991       1.64597998       5.07634993
C        0.54035299       4.88383993       7.29811989
H        1.16684998       5.23223992       3.19176995
H        7.40709989       2.33675997       1.05340998
H        6.18505991       0.69550299       4.65527993
H        0.11207100       3.98207994       7.60431989
C        2.48131996       3.55014995       3.55333995
C        5.94843991       0.76279399       0.70150199
C        4.73642993       2.34167997       4.55222993
C        1.72292997       5.40332992       7.82430988
C        3.11178995       4.17466994       4.56881993
C        3.21842995       1.36730998       7.99829988
C        3.95867994       1.56638998       3.67876995
C        4.47919993       4.80424993       0.52424699
H        2.87270996       5.14086992       4.94393993
H        3.48916995       2.41426996       7.68268989
H        4.29515994       0.49084099       3.47424995
H        4.12286994       3.85126994       0.85335399
C        4.29627994       3.62371995       5.08146993
C        2.14268997       0.71083899       7.37593989
C        2.85557996       2.18062997       3.13632995
C        5.54724992       5.45842992       1.10658998
C        2.12366997       1.68223998       2.03134997
C        6.25055991       4.76460993       2.15017997
C        5.05994993       4.20768994       6.08637991
C        1.44316998       1.35367998       6.33812991
H        2.51152996       0.69402299       1.65711998
H        5.80589991       3.79955994       2.44444996
H        4.77318993       5.25916992       6.45654990
H        1.84928997       2.29875997       6.01931991
C        1.04925998       2.32291997       1.45051998
C        7.35230989       5.34454992       2.74227996
C        6.23662991       3.61893995       6.49940990
C        0.36714699       0.73213399       5.77638991
H        0.54834599       1.92509997       0.56703999
H        7.83330988       4.81041993       3.55827995
H        6.91385990       4.04842994       7.25068989
H       -0.27562900       1.23177998       5.00851993
48
Lattice="9.45199986 0.0 0.0 0.0 6.00739991 0.0 -1.99585319 0.0 8.30566315" Properties=species:S:1:pos:R:3 energy=-29105.6837287602 alpha="600.100981121512 2.2357138246322403 285.44116977062004 2.2357138246322403 506.903928498066 -3.23683456882046 285.44116977062004 -3.23683456882046 537.236841061871" dipole="0.600100981121512 0.506903928498066 0.5372368410618711" pbc="T T T"
C        0.71131499       3.60870995       1.80822997
C        7.80222989       0.60723099       2.31280997
C        6.61743990       2.28534997       6.06517991
C       -0.10491500       5.50238992       6.22926991
H        0.00204350       4.19231994       1.22070998
H        8.57811987       1.05697998       2.87366996
H        7.47390989       1.80657997       6.41849991
H       -0.99924699       5.03457993       5.81140991
C        1.41061998       4.22847994       2.84903996
C        7.10248990       1.32430998       1.35763998
C        5.85133991       1.72870997       5.14508992
C        0.54475299       4.90307993       7.29753989
H        1.23641998       5.26605992       3.14956995
H        7.59849989       2.24447997       1.12584998
H        6.03808991       0.76351099       4.67521993
H        0.29246900       3.92702994       7.62746989
C        2.39658996       3.49796995       3.56186995
C        6.01909991       0.74516599       0.65914099
C        4.68137993       2.29829997       4.62726993
C        1.72515997       5.44366992       7.85319988
C        3.15074995       4.19052994       4.57831993
C        3.20405995       1.34712998       7.99730988
C        3.92162994       1.60258998       3.72044995
C        4.45413993       4.79698993       0.52590399
H        2.54760996       4.90489993       5.05833993
H        3.38920995       2.37912996       7.62885989
H        4.25103994       0.57309599       3.31788995
H        4.36014994       3.77118994       0.80030099
C        4.28494994       3.59302995       5.11902992
C        2.15767997       0.69271199       7.36015989
C        2.86412996       2.26996997       3.09388995
C        5.56630992       5.44771992       1.12740998
C        2.11114997       1.68181998       2.06312997
C        6.26421991       4.82592993       2.15407997
C        5.15249992       4.22415994       6.06535991
C        1.46665998       1.31438998       6.28350991
H        2.41913996       0.69432699       1.61132998
H        5.92468991       3.80832994       2.44736996
H        4.76543993       5.18380992       6.53778990
H        1.81773997       2.28728997       5.98225991
C        1.08207998       2.30310997       1.42674998
C        7.34303989       5.34806992       2.77576996
C        6.25134991       3.56586995       6.52719990
C        0.33652500       0.73394199       5.73089992
H        0.53180499       1.79690997       0.63348399
H        7.83990988       4.85070993       3.60478995
H        6.81450990       4.16481994       7.24429989
H       -0.11341900       1.27570998       4.85604993
48
Lattice="9.45199986 0.0 0.0 0.0 6.00739991 0.0 -1.99585319 0.0 8.30566315" Properties=species:S:1:pos:R:3 energy=-29105.9224570206 alpha="615.271361662921 -0.24511294859094201 297.02866446968096 -0.24511294859094201 509.426462453949 -11.204853666082549 297.02866446968096 -11.204853666082549 558.380650985953" dipole="0.615271361662921 0.509426462453949 0.558380650985953" pbc="T T T"
C        0.72582699       3.64213995       1.76468997
C        7.82338988       0.61580399       2.34447997
C        6.63986990       2.28174997       6.13451991
C       -0.17902800       5.52983992       6.23917991
H       -0.04416610       4.22165994       1.24289998
H        8.67549987       1.09274998       2.75728996
H        7.36539989       1.64942998       6.55762990
H       -1.01396999       5.10552992       5.69187992
C        1.40717998       4.23893994       2.78344996
C        7.14825989       1.29146998       1.35380998
C        5.83848991       1.69320998       5.14931992
C        0.53294099       4.85847993       7.23909989
H        1.13593998       5.24730992       3.06826995
H        7.35616989       2.28983997       0.97703399
H        6.16514991       0.67444199       4.89570993
H        0.22220600       3.92069994       7.67800989
C        2.38828996       3.57909995       3.57805995
C        6.00851991       0.72398299       0.66286599
C        4.62341993       2.26389997       4.72726993
C        1.71043997       5.45879992       7.86618988
C        3.09499995       4.15743994       4.61927993
C        3.26129995       1.36807998       7.96340988
C        3.88017994       1.67370998       3.69638995
C        4.48599993       4.80151993       0.55561099
H        2.81149996       5.10699992       5.03874993
H        3.60753995       2.34762997       7.61382989
H        4.19126994       0.63189099       3.30614995
H        4.13611994       3.82811994       0.86248199
C        4.28195994       3.58842995       5.13530992
C        2.16650997       0.72440099       7.36187989
C        2.82059996       2.28021997       3.04917996
C        5.58100992       5.43470992       1.09455998
C        2.11234997       1.61510998       2.02043997
C        6.26821991       4.78297993       2.19210997
C        5.17080992       4.22228994       6.06337991
C        1.46578998       1.29569998       6.23890991
H        2.41688996       0.55211599       1.77035997
H        5.93944991       3.78029994       2.56657996
H        5.00637993       5.24422992       6.48795990
H        1.76581997       2.22965997       5.80465991
C        1.09084998       2.29353997       1.39466998
C        7.35342989       5.38328992       2.79868996
C        6.28577991       3.58480995       6.60081990
C        0.36333399       0.75670599       5.68302992
H        0.56827399       1.70282997       0.64298999
H        7.89665988       4.84477993       3.57368995
H        6.93487990       4.00036994       7.37387989
H       -0.15491700       1.16494998       4.77313993
48
Lattice="9.45199986 0.0 0.0 0.0 6.00739991 0.0 -1.99585319 0.0 8.30566315" Properties=species:S:1:pos:R:3 energy=-29105.3076669719 alpha="626.177409674772 10.577297151605 301.4397423196965 10.577297151605 535.720707137732 -10.6680727928466 301.4397423196965 -10.6680727928466 584.130508269446" dipole="0.626177409674772 0.535720707137732 0.584130508269446" pbc="T T T"
C        0.78285799       3.61827995       1.70686997
C        7.82697988       0.68009399       2.35266997
C        6.61075990       2.26781997       6.19175991
C       -0.16954000       5.54280992       6.23841991
H       -0.08873890       4.06429994       1.20678998
H        8.75141987       1.06520998       2.71503996
H        7.49072989       1.86699997       6.64902990
H       -1.06896998       5.04773993       5.91440991
C        1.35489998       4.28261994       2.78071996
C        7.15408989       1.27419998       1.29108998
C        5.85153991       1.61253998       5.23599992
C        0.52148599       4.86848993       7.20011989
H        1.00685999       5.26560992       3.03866996
H        7.47308989       2.30477997       1.03985998
H        6.05424991       0.60708699       4.80227993
H        0.04910760       3.93077994       7.50815989
C        2.41812996       3.63936995       3.50825995
C        5.98891991       0.70287899       0.70208399
C        4.61224993       2.24104997       4.73588993
C        1.68433998       5.43659992       7.82659988
C        3.07106995       4.18139994       4.68619993
C        3.35438995       1.36477998       7.92982988
C        3.86939994       1.69075998       3.67285995
C        4.42346993       4.82198993       0.52535299
H        3.04298996       5.25241992       4.78339993
H        3.75117994       2.29814997       7.55537989
H        4.21935994       0.64651599       3.36098995
H        4.02184994       3.94969994       1.04460998
C        4.27776994       3.58836995       5.19357992
C        2.16038997       0.78198299       7.34906989
C        2.76786996       2.28922997       3.07911995
C        5.61431992       5.36702992       1.13284998
C        2.10016997       1.61213998       1.97852997
C        6.29100991       4.75648993       2.22503997
C        5.19671992       4.22759994       6.11722991
C        1.48971998       1.33549998       6.20929991
H        2.37002997       0.53528199       1.76642997
H        5.83508991       3.79475994       2.57398996
H        4.94719993       5.28275992       6.24485991
H        1.99217997       2.18762997       5.79743991
C        1.07973998       2.27013997       1.34498998
C        7.36314989       5.37781992       2.80515996
C        6.30298991       3.57727995       6.64147990
C        0.35498899       0.68594899       5.67473992
H        0.45474599       1.90559997       0.52922899
H        7.90251988       4.86821993       3.60570995
H        6.88432990       4.07030994       7.41810989
H       -0.14452200       1.22986998       4.82827993
48
Lattice="9.45199986 0.0 0.0 0.0 6.00739991 0.0 -1.99585319 0.0 8.30566315" Properties=species:S:1:pos:R:3 energy=-29105.9002948839 alpha="611.710384038371 4.16056388959355 298.65578737106046 4.16056388959355 524.211245002961 -20.374254260542152 298.65578737106046 -20.374254260542152 581.253442737249" dipole="0.611710384038371 0.524211245002961 0.581253442737249" pbc="T T T"
C        0.79442699       3.59959995       1.68867998
C        7.79102989       0.65350099       2.31935997
C        6.58261990       2.23490997       6.24429991
C       -0.15484900       5.51837992       6.21785991
H       -0.01741610       4.10881994       1.14216998
H        8.62056987       1.14299998       2.78864996
H        7.55865989       1.81280997       6.47870990
H       -1.13249998       5.21819992       5.88356991
C        1.33595998       4.28950994       2.77984996
C        7.16703989       1.28197998       1.29091998
C        5.78670991       1.59128998       5.33080992
C        0.52553299       4.89378993       7.23118989
H        0.96517999       5.24170992       3.09166995
H        7.58052989       2.22466997       0.84778199
H        6.15716991       0.63996699       4.86910993
H        0.27444500       3.87867994       7.61719989
C        2.42526996       3.66504995       3.49413995
C        6.01897991       0.66846499       0.69261999
C        4.66814993       2.24592997       4.72989993
C        1.71190997       5.48808992       7.76919989
C        3.16208995       4.23523994       4.62304993
C        3.35064995       1.27612998       7.90761988
C        3.89713994       1.65647998       3.71286995
C        4.38188994       4.83822993       0.56034999
H        2.79083996       5.22763992       4.91895993
H        3.73888994       2.20283997       7.55894989
H        4.15430994       0.67631599       3.22424995
H        3.99031994       3.86129994       0.91160299
C        4.25482994       3.54752995       5.24600992
C        2.19110997       0.76439199       7.33340989
C        2.74766996       2.30215997       3.08295995
C        5.54206992       5.35650992       1.13571998
C        2.07526997       1.66016998       1.99257997
C        6.28919991       4.75677993       2.22874997
C        5.15896992       4.23536994       6.13827991
C        1.51043998       1.32594998       6.20343991
H        2.41065996       0.64257799       1.64676998
H        6.01709991       3.76201994       2.66752996
H        4.98755993       5.23817992       6.48773990
H        1.81246997       2.23041997       5.70734992
C        1.08874998       2.28917997       1.28483998
C        7.39094989       5.39956992       2.80292996
C        6.24460991       3.58386995       6.64295990
C        0.40104699       0.73768899       5.67598992
H        0.57800499       1.77694997       0.46125399
H        7.88606988       4.96899993       3.67666995
H        6.91895990       4.13421994       7.28847989
H       -0.17536200       1.17807998       4.81898993
48