48
# CELL(abcABC):   17.55121    11.31984    15.89770    90.00000   102.52600    90.00000  Step:         347  Bead:       0 positions{atomic_unit}  cell{atomic_unit}
       C  1.53713e+00  6.00994e+00  3.40287e+00
       C  1.42954e+01  3.50020e-01  4.36652e+00
       C  1.25714e+01  5.32438e+00  1.21262e+01
       C -1.86844e-01  1.09843e+01  1.11625e+01
       H -1.53074e-01  6.69740e+00  2.44515e+00
       H  1.59856e+01  1.03749e+00  5.32424e+00
       H  1.42616e+01  4.63691e+00  1.30839e+01
       H -1.87704e+00  1.02968e+01  1.02048e+01
       C  2.66135e+00  7.46624e+00  5.23360e+00
       C  1.31712e+01  1.80632e+00  2.53579e+00
       C  1.14472e+01  3.86807e+00  1.02954e+01
       C  9.37377e-01  9.52799e+00  1.29932e+01
       H  1.89144e+00  9.31287e+00  5.73019e+00
       H  1.39411e+01  3.65295e+00  2.03920e+00
       H  1.22171e+01  2.02144e+00  9.79886e+00
       H  1.67468e-01  7.68136e+00  1.34898e+01
       C  4.87030e+00  6.61219e+00  6.51926e+00
       C  1.09622e+01  9.52278e-01  1.25013e+00
       C  9.23827e+00  4.72212e+00  9.00978e+00
       C  3.14633e+00  1.03820e+01  1.42789e+01
       C  6.06566e+00  8.05934e+00  8.38460e+00
       C  6.31894e+00  2.39942e+00  1.49041e+01
       C  8.04292e+00  3.27497e+00  7.14445e+00
       C  7.78962e+00  8.93489e+00  6.24946e-01
       H  5.29330e+00  9.90827e+00  8.87941e+00
       H  7.09130e+00  4.24836e+00  1.44093e+01
       H  8.81528e+00  1.42604e+00  6.64963e+00
       H  7.01726e+00  7.08596e+00  1.11976e+00
       C  8.21922e+00  7.17736e+00  9.64755e+00
       C  4.16538e+00  1.51745e+00  1.36411e+01
       C  5.88936e+00  4.15695e+00  5.88150e+00
       C  9.94318e+00  9.81687e+00  1.88789e+00
       C  4.66768e+00  2.70859e+00  3.96954e+00
       C  1.11649e+01  8.36852e+00  3.79985e+00
       C  9.44089e+00  8.62572e+00  1.15595e+01
       C  2.94371e+00  2.96580e+00  1.17292e+01
       H  5.44588e+00  8.65620e-01  3.48203e+00
       H  1.03867e+01  6.52554e+00  4.28736e+00
       H  8.66269e+00  1.04687e+01  1.20470e+01
       H  3.72191e+00  4.80877e+00  1.12417e+01
       C  2.55932e+00  3.60949e+00  2.75462e+00
       C  1.32732e+01  9.26941e+00  5.01477e+00
       C  1.15493e+01  7.72483e+00  1.27744e+01
       C  8.35345e-01  2.06491e+00  1.05143e+01
       H  1.66003e+00  2.47178e+00  1.28910e+00
       H  1.41725e+01  8.13170e+00  6.48029e+00
       H  1.24485e+01  8.86253e+00  1.42399e+01
       H -6.39424e-02  3.20261e+00  9.04874e+00
