48
# CELL(abcABC):    9.28770     5.99020     8.41270    90.00000   102.52600    90.00000  Step:        7300  Bead:       0 positions{angstrom}  cell{angstrom}
       C  8.51003e-01  3.06560e+00  1.78187e+00
       C  7.56760e+00  1.97678e-02  2.28840e+00
       C  6.64694e+00  2.86984e+00  6.48600e+00
       C -9.30525e-02  5.97727e+00  5.89633e+00
       H -6.97856e-02  3.46478e+00  1.25388e+00
       H  8.45533e+00  3.50245e-01  2.87609e+00
       H  7.51966e+00  2.59268e+00  7.01617e+00
       H -9.70832e-01  5.63313e+00  5.27593e+00
       C  1.44011e+00  3.88544e+00  2.69674e+00
       C  7.01272e+00  8.36767e-01  1.32567e+00
       C  6.05577e+00  2.07933e+00  5.56211e+00
       C  4.44248e-01  5.18974e+00  6.84726e+00
       H  9.99927e-01  4.84175e+00  2.91757e+00
       H  7.48905e+00  1.79232e+00  1.10947e+00
       H  6.42520e+00  1.08022e+00  5.32849e+00
       H  6.00891e-02  4.22342e+00  7.11732e+00
       C  2.57847e+00  3.46328e+00  3.41609e+00
       C  5.85635e+00  4.41075e-01  6.39863e-01
       C  4.89777e+00  2.49069e+00  4.81408e+00
       C  1.59953e+00  5.57434e+00  7.58416e+00
       C  3.24633e+00  4.26595e+00  4.38837e+00
       C  3.37447e+00  1.30647e+00  7.92539e+00
       C  4.22747e+00  1.68034e+00  3.84655e+00
       C  4.05908e+00  4.76681e+00  3.00764e-01
       H  2.81268e+00  5.22056e+00  4.62568e+00
       H  3.84155e+00  2.28267e+00  7.70346e+00
       H  4.69287e+00  7.20784e-01  3.62495e+00
       H  3.60124e+00  3.79993e+00  5.74952e-01
       C  4.35626e+00  3.79693e+00  5.06986e+00
       C  2.17930e+00  8.90735e-01  7.30216e+00
       C  3.12966e+00  2.16834e+00  3.09971e+00
       C  5.22736e+00  5.14652e+00  9.47866e-01
       C  2.48626e+00  1.36579e+00  2.08564e+00
       C  5.89911e+00  4.30029e+00  1.92271e+00
       C  4.99460e+00  4.61140e+00  6.06696e+00
       C  1.54726e+00  1.67472e+00  6.32259e+00
       H  2.92725e+00  4.40543e-01  1.85238e+00
       H  5.43978e+00  3.29545e+00  2.14013e+00
       H  4.58892e+00  5.59663e+00  6.29431e+00
       H  1.97301e+00  2.67487e+00  6.11356e+00
       C  1.37480e+00  1.80353e+00  1.41656e+00
       C  6.98109e+00  4.76183e+00  2.58650e+00
       C  6.06999e+00  4.16133e+00  6.75764e+00
       C  4.67179e-01  1.25181e+00  5.58525e+00
       H  9.35663e-01  1.20354e+00  6.30379e-01
       H  7.43028e+00  4.21717e+00  3.45019e+00
       H  6.48412e+00  4.78817e+00  7.56246e+00
       H  6.87002e-02  1.88387e+00  4.79229e+00

