------------------------------------------------------------
          Invoking FHI-aims ...

          When using FHI-aims, please cite the following reference:

            Volker Blum, Ralf Gehrke, Felix Hanke, Paula Havu,
            Ville Havu, Xinguo Ren, Karsten Reuter, and Matthias Scheffler,
            'Ab Initio Molecular Simulations with Numeric Atom-Centered Orbitals',
            Computer Physics Communications 180, 2175-2196 (2009)

          In addition, many other developments in FHI-aims are likely important for
          your particular application. A partial list of references is given at the end of
          this file. Thank you for giving credit to the authors of these developments.

          For any questions about FHI-aims, please visit our slack channel at

            https://fhi-aims.slack.com

          and our main development and support site at

            https://aims-git.rz-berlin.mpg.de .

          The latter site, in particular, has a wiki to collect information, as well
          as an issue tracker to log discussions, suggest improvements, and report issues
          or bugs. https://aims-git.rz-berlin.mpg.de is also the main development site
          of the project and all new and updated code versions can be obtained there.
          Please send an email to aims-coordinators@fhi-berlin.mpg.de and we will add
          you to these sites. They are for you and everyone is welcome there.

------------------------------------------------------------



  Date     :  20250212, Time     :  180358.994
  Time zero on CPU 1             :   0.495724000000000E+00  s.
  Internal wall clock time zero  :           508615438.994  s.

  FHI-aims created a unique identifier for this run for later identification
  aims_uuid : 81DEF625-CBF7-4C29-AE31-5A1E7D04F745

  Build configuration of the current instance of FHI-aims
  -------------------------------------------------------
  FHI-aims version      : 220619
  Commit number         : ae3938acd
  CMake host system     : Linux-5.3.18-150300.59.68-default
  CMake version         : 3.18.4
  Fortran compiler      : /mpcdf/soft/SLE_15/packages/x86_64/intel_oneapi/2021.3/mpi/2021.3.0/bin/mpiifort (Intel) version 20.2.3.20210609
  Fortran compiler flags: -O3 -ip -fp-model precise
  C compiler            : /mpcdf/soft/SLE_15/packages/x86_64/intel/2021.3.0/bin/icc (Intel) version 20.2.3.20210609
  C compiler flags      : -O3 -ip -fp-model precise -std=gnu99
  CUDA compiler         : /mpcdf/soft/SLE_15/packages/x86_64/cuda/11.6.2/bin/nvcc
  CUDA compiler flags   : -O3 -DAdd_ -lcublas
  ELPA2 kernel          : AVX512
  Using MPI
  Using ScaLAPACK
  Using LibXC
  Using CUDA
  Using i-PI
  Using RLSY
  Linking against: /mpcdf/soft/SLE_15/packages/x86_64/cuda/11.6.2/lib64/libcublas.so
                   /mpcdf/soft/SLE_15/packages/x86_64/cuda/11.6.2/lib64/libcudart.so
                   /mpcdf/soft/SLE_15/packages/x86_64/intel_oneapi/2021.3/mkl/latest/lib/intel64/libmkl_intel_lp64.so
                   /mpcdf/soft/SLE_15/packages/x86_64/intel_oneapi/2021.3/mkl/latest/lib/intel64/libmkl_sequential.so
                   /mpcdf/soft/SLE_15/packages/x86_64/intel_oneapi/2021.3/mkl/latest/lib/intel64/libmkl_core.so
                   /mpcdf/soft/SLE_15/packages/x86_64/intel_oneapi/2021.3/mkl/latest/lib/intel64/libmkl_blacs_intelmpi_lp64.so
                   /mpcdf/soft/SLE_15/packages/x86_64/intel_oneapi/2021.3/mkl/latest/lib/intel64/libmkl_scalapack_lp64.so

  Using      288 parallel tasks.
  Task        0 on host adag041 reporting.
  Task        1 on host adag041 reporting.
  Task        2 on host adag041 reporting.
  Task        3 on host adag041 reporting.
  Task        4 on host adag041 reporting.
  Task        5 on host adag041 reporting.
  Task        6 on host adag041 reporting.
  Task        7 on host adag041 reporting.
  Task        8 on host adag041 reporting.
  Task        9 on host adag041 reporting.
  Task       10 on host adag041 reporting.
  Task       11 on host adag041 reporting.
  Task       12 on host adag041 reporting.
  Task       13 on host adag041 reporting.
  Task       14 on host adag041 reporting.
  Task       15 on host adag041 reporting.
  Task       16 on host adag041 reporting.
  Task       17 on host adag041 reporting.
  Task       18 on host adag041 reporting.
  Task       19 on host adag041 reporting.
  Task       20 on host adag041 reporting.
  Task       21 on host adag041 reporting.
  Task       22 on host adag041 reporting.
  Task       23 on host adag041 reporting.
  Task       24 on host adag041 reporting.
  Task       25 on host adag041 reporting.
  Task       26 on host adag041 reporting.
  Task       27 on host adag041 reporting.
  Task       28 on host adag041 reporting.
  Task       29 on host adag041 reporting.
  Task       30 on host adag041 reporting.
  Task       31 on host adag041 reporting.
  Task       32 on host adag041 reporting.
  Task       33 on host adag041 reporting.
  Task       34 on host adag041 reporting.
  Task       35 on host adag041 reporting.
  Task       36 on host adag041 reporting.
  Task       37 on host adag041 reporting.
  Task       38 on host adag041 reporting.
  Task       39 on host adag041 reporting.
  Task       40 on host adag041 reporting.
  Task       41 on host adag041 reporting.
  Task       42 on host adag041 reporting.
  Task       43 on host adag041 reporting.
  Task       44 on host adag041 reporting.
  Task       45 on host adag041 reporting.
  Task       46 on host adag041 reporting.
  Task       47 on host adag041 reporting.
  Task       48 on host adag041 reporting.
  Task       49 on host adag041 reporting.
  Task       50 on host adag041 reporting.
  Task       51 on host adag041 reporting.
  Task       52 on host adag041 reporting.
  Task       53 on host adag041 reporting.
  Task       54 on host adag041 reporting.
  Task       55 on host adag041 reporting.
  Task       56 on host adag041 reporting.
  Task       57 on host adag041 reporting.
  Task       58 on host adag041 reporting.
  Task       59 on host adag041 reporting.
  Task       60 on host adag041 reporting.
  Task       61 on host adag041 reporting.
  Task       62 on host adag041 reporting.
  Task       63 on host adag041 reporting.
  Task       64 on host adag041 reporting.
  Task       65 on host adag041 reporting.
  Task       66 on host adag041 reporting.
  Task       67 on host adag041 reporting.
  Task       68 on host adag041 reporting.
  Task       69 on host adag041 reporting.
  Task       70 on host adag041 reporting.
  Task       71 on host adag041 reporting.
  Task       72 on host adag042 reporting.
  Task       73 on host adag042 reporting.
  Task       74 on host adag042 reporting.
  Task       75 on host adag042 reporting.
  Task       76 on host adag042 reporting.
  Task       77 on host adag042 reporting.
  Task       78 on host adag042 reporting.
  Task       79 on host adag042 reporting.
  Task       80 on host adag042 reporting.
  Task       81 on host adag042 reporting.
  Task       82 on host adag042 reporting.
  Task       83 on host adag042 reporting.
  Task       84 on host adag042 reporting.
  Task       85 on host adag042 reporting.
  Task       86 on host adag042 reporting.
  Task       87 on host adag042 reporting.
  Task       88 on host adag042 reporting.
  Task       89 on host adag042 reporting.
  Task       90 on host adag042 reporting.
  Task       91 on host adag042 reporting.
  Task       92 on host adag042 reporting.
  Task       93 on host adag042 reporting.
  Task       94 on host adag042 reporting.
  Task       95 on host adag042 reporting.
  Task       96 on host adag042 reporting.
  Task       97 on host adag042 reporting.
  Task       98 on host adag042 reporting.
  Task       99 on host adag042 reporting.
  Task      100 on host adag042 reporting.
  Task      101 on host adag042 reporting.
  Task      102 on host adag042 reporting.
  Task      103 on host adag042 reporting.
  Task      104 on host adag042 reporting.
  Task      105 on host adag042 reporting.
  Task      106 on host adag042 reporting.
  Task      107 on host adag042 reporting.
  Task      108 on host adag042 reporting.
  Task      109 on host adag042 reporting.
  Task      110 on host adag042 reporting.
  Task      111 on host adag042 reporting.
  Task      112 on host adag042 reporting.
  Task      113 on host adag042 reporting.
  Task      114 on host adag042 reporting.
  Task      115 on host adag042 reporting.
  Task      116 on host adag042 reporting.
  Task      117 on host adag042 reporting.
  Task      118 on host adag042 reporting.
  Task      119 on host adag042 reporting.
  Task      120 on host adag042 reporting.
  Task      121 on host adag042 reporting.
  Task      122 on host adag042 reporting.
  Task      123 on host adag042 reporting.
  Task      124 on host adag042 reporting.
  Task      125 on host adag042 reporting.
  Task      126 on host adag042 reporting.
  Task      127 on host adag042 reporting.
  Task      128 on host adag042 reporting.
  Task      129 on host adag042 reporting.
  Task      130 on host adag042 reporting.
  Task      131 on host adag042 reporting.
  Task      132 on host adag042 reporting.
  Task      133 on host adag042 reporting.
  Task      134 on host adag042 reporting.
  Task      135 on host adag042 reporting.
  Task      136 on host adag042 reporting.
  Task      137 on host adag042 reporting.
  Task      138 on host adag042 reporting.
  Task      139 on host adag042 reporting.
  Task      140 on host adag042 reporting.
  Task      141 on host adag042 reporting.
  Task      142 on host adag042 reporting.
  Task      143 on host adag042 reporting.
  Task      144 on host adag043 reporting.
  Task      145 on host adag043 reporting.
  Task      146 on host adag043 reporting.
  Task      147 on host adag043 reporting.
  Task      148 on host adag043 reporting.
  Task      149 on host adag043 reporting.
  Task      150 on host adag043 reporting.
  Task      151 on host adag043 reporting.
  Task      152 on host adag043 reporting.
  Task      153 on host adag043 reporting.
  Task      154 on host adag043 reporting.
  Task      155 on host adag043 reporting.
  Task      156 on host adag043 reporting.
  Task      157 on host adag043 reporting.
  Task      158 on host adag043 reporting.
  Task      159 on host adag043 reporting.
  Task      160 on host adag043 reporting.
  Task      161 on host adag043 reporting.
  Task      162 on host adag043 reporting.
  Task      163 on host adag043 reporting.
  Task      164 on host adag043 reporting.
  Task      165 on host adag043 reporting.
  Task      166 on host adag043 reporting.
  Task      167 on host adag043 reporting.
  Task      168 on host adag043 reporting.
  Task      169 on host adag043 reporting.
  Task      170 on host adag043 reporting.
  Task      171 on host adag043 reporting.
  Task      172 on host adag043 reporting.
  Task      173 on host adag043 reporting.
  Task      174 on host adag043 reporting.
  Task      175 on host adag043 reporting.
  Task      176 on host adag043 reporting.
  Task      177 on host adag043 reporting.
  Task      178 on host adag043 reporting.
  Task      179 on host adag043 reporting.
  Task      180 on host adag043 reporting.
  Task      181 on host adag043 reporting.
  Task      182 on host adag043 reporting.
  Task      183 on host adag043 reporting.
  Task      184 on host adag043 reporting.
  Task      185 on host adag043 reporting.
  Task      186 on host adag043 reporting.
  Task      187 on host adag043 reporting.
  Task      188 on host adag043 reporting.
  Task      189 on host adag043 reporting.
  Task      190 on host adag043 reporting.
  Task      191 on host adag043 reporting.
  Task      192 on host adag043 reporting.
  Task      193 on host adag043 reporting.
  Task      194 on host adag043 reporting.
  Task      195 on host adag043 reporting.
  Task      196 on host adag043 reporting.
  Task      197 on host adag043 reporting.
  Task      198 on host adag043 reporting.
  Task      199 on host adag043 reporting.
  Task      200 on host adag043 reporting.
  Task      201 on host adag043 reporting.
  Task      202 on host adag043 reporting.
  Task      203 on host adag043 reporting.
  Task      204 on host adag043 reporting.
  Task      205 on host adag043 reporting.
  Task      206 on host adag043 reporting.
  Task      207 on host adag043 reporting.
  Task      208 on host adag043 reporting.
  Task      209 on host adag043 reporting.
  Task      210 on host adag043 reporting.
  Task      211 on host adag043 reporting.
  Task      212 on host adag043 reporting.
  Task      213 on host adag043 reporting.
  Task      214 on host adag043 reporting.
  Task      215 on host adag043 reporting.
  Task      216 on host adag061 reporting.
  Task      217 on host adag061 reporting.
  Task      218 on host adag061 reporting.
  Task      219 on host adag061 reporting.
  Task      220 on host adag061 reporting.
  Task      221 on host adag061 reporting.
  Task      222 on host adag061 reporting.
  Task      223 on host adag061 reporting.
  Task      224 on host adag061 reporting.
  Task      225 on host adag061 reporting.
  Task      226 on host adag061 reporting.
  Task      227 on host adag061 reporting.
  Task      228 on host adag061 reporting.
  Task      229 on host adag061 reporting.
  Task      230 on host adag061 reporting.
  Task      231 on host adag061 reporting.
  Task      232 on host adag061 reporting.
  Task      233 on host adag061 reporting.
  Task      234 on host adag061 reporting.
  Task      235 on host adag061 reporting.
  Task      236 on host adag061 reporting.
  Task      237 on host adag061 reporting.
  Task      238 on host adag061 reporting.
  Task      239 on host adag061 reporting.
  Task      240 on host adag061 reporting.
  Task      241 on host adag061 reporting.
  Task      242 on host adag061 reporting.
  Task      243 on host adag061 reporting.
  Task      244 on host adag061 reporting.
  Task      245 on host adag061 reporting.
  Task      246 on host adag061 reporting.
  Task      247 on host adag061 reporting.
  Task      248 on host adag061 reporting.
  Task      249 on host adag061 reporting.
  Task      250 on host adag061 reporting.
  Task      251 on host adag061 reporting.
  Task      252 on host adag061 reporting.
  Task      253 on host adag061 reporting.
  Task      254 on host adag061 reporting.
  Task      255 on host adag061 reporting.
  Task      256 on host adag061 reporting.
  Task      257 on host adag061 reporting.
  Task      258 on host adag061 reporting.
  Task      259 on host adag061 reporting.
  Task      260 on host adag061 reporting.
  Task      261 on host adag061 reporting.
  Task      262 on host adag061 reporting.
  Task      263 on host adag061 reporting.
  Task      264 on host adag061 reporting.
  Task      265 on host adag061 reporting.
  Task      266 on host adag061 reporting.
  Task      267 on host adag061 reporting.
  Task      268 on host adag061 reporting.
  Task      269 on host adag061 reporting.
  Task      270 on host adag061 reporting.
  Task      271 on host adag061 reporting.
  Task      272 on host adag061 reporting.
  Task      273 on host adag061 reporting.
  Task      274 on host adag061 reporting.
  Task      275 on host adag061 reporting.
  Task      276 on host adag061 reporting.
  Task      277 on host adag061 reporting.
  Task      278 on host adag061 reporting.
  Task      279 on host adag061 reporting.
  Task      280 on host adag061 reporting.
  Task      281 on host adag061 reporting.
  Task      282 on host adag061 reporting.
  Task      283 on host adag061 reporting.
  Task      284 on host adag061 reporting.
  Task      285 on host adag061 reporting.
  Task      286 on host adag061 reporting.
  Task      287 on host adag061 reporting.

  Performing system and environment tests:
  | Environment variable OMP_NUM_THREADS correctly set to 1.
  | Checking for ScaLAPACK...
  | Testing pdtran()...
  | All pdtran() tests passed.

  Obtaining array dimensions for all initial allocations:
  
  -----------------------------------------------------------------------
  Parsing control.in (first pass over file, find array dimensions only).
  The contents of control.in will be repeated verbatim below
  unless switched off by setting 'verbatim_writeout .false.' .
  in the first line of control.in .
  -----------------------------------------------------------------------
  
  #
  # Input for polarizability replays on generic oligoacene molecular crystals (tight settings,  LDA+MBD).
  #
  #########################################################################################
  #
  #  Physical model
  #
    xc                 pw-lda
    spin               none
    relativistic       none
    charge             0.0
    k_grid 	     2 2 2
    DFPT dielectric
  #
  #  Relaxation
  #
  #  relax_geometry trm 1E-3
  #  relax_unit_cell fixed_angles
  #
  #  SCF convergence        #
    charge_mix_param   0.75
    #sc_accuracy_rho 1E-4
  #
  # i-PI communication
  #
  compute_forces .false.
   use_pimd_wrapper 130.183.223.64 29568
  communicate_pimd_wrapper polarizability
  output_level MD_light
  #
  #
  ################################################################################
  #
  #  FHI-aims code project
  #  Volker Blum, Fritz Haber Institute Berlin, 2009
  #
  #  Suggested "tight" defaults for H atom (to be pasted into control.in file)
  #
  ################################################################################
    species        H
  #     global species definitions
      nucleus             1
      mass                1.00794
  #
      l_hartree           6
  #
      cut_pot             4.0  2.0  1.0
      basis_dep_cutoff    1e-4
  #
      radial_base         24 7.0
      radial_multiplier   2
      angular_grids       specified
        division   0.1930   50
        division   0.3175  110
        division   0.4293  194
        division   0.5066  302
        division   0.5626  434
  #      division   0.5922  590
  #      division   0.6227  974
  #      division   0.6868 1202
  #      outer_grid  770
        outer_grid  434
  ################################################################################
  #
  #  Definition of "minimal" basis
  #
  ################################################################################
  #     valence basis states
      valence      1  s   1.
  #     ion occupancy
      ion_occ      1  s   0.5
  ################################################################################
  #
  #  Suggested additional basis functions. For production calculations,
  #  uncomment them one after another (the most important basis functions are
  #  listed first).
  #
  #  Basis constructed for dimers: 0.5 A, 0.7 A, 1.0 A, 1.5 A, 2.5 A
  #
  ################################################################################
  #  "First tier" - improvements: -1014.90 meV to -62.69 meV
       hydro 2 s 2.1
       hydro 2 p 3.5
  #  "Second tier" - improvements: -12.89 meV to -1.83 meV
       hydro 1 s 0.85
       hydro 2 p 3.7
       hydro 2 s 1.2
       hydro 3 d 7
  #  "Third tier" - improvements: -0.25 meV to -0.12 meV
  #     hydro 4 f 11.2
  #     hydro 3 p 4.8
  #     hydro 4 d 9
  #     hydro 3 s 3.2
  ################################################################################
  #
  #  FHI-aims code project
  #  Volker Blum, Fritz Haber Institute Berlin, 2009
  #
  #  Suggested "tight" defaults for C atom (to be pasted into control.in file)
  #
  ################################################################################
    species        C
  #     global species definitions
      nucleus             6
      mass                12.0107
  #
      l_hartree           6
  #
      cut_pot             4.0  2.0  1.0
      basis_dep_cutoff    1e-4
  #
      radial_base         34 7.0
      radial_multiplier   2
      angular_grids specified
        division   0.2187   50
        division   0.4416  110
        division   0.6335  194
        division   0.7727  302
        division   0.8772  434
  #      division   0.9334  590
  #      division   0.9924  770
  #      division   1.0230  974
  #      division   1.5020 1202
  #     outer_grid  974
        outer_grid  434
  ################################################################################
  #
  #  Definition of "minimal" basis
  #
  ################################################################################
  #     valence basis states
      valence      2  s   2.
      valence      2  p   2.
  #     ion occupancy
      ion_occ      2  s   1.
      ion_occ      2  p   1.
  ################################################################################
  #
  #  Suggested additional basis functions. For production calculations,
  #  uncomment them one after another (the most important basis functions are
  #  listed first).
  #
  #  Constructed for dimers: 1.0 A, 1.25 A, 1.5 A, 2.0 A, 3.0 A
  #
  ################################################################################
  #  "First tier" - improvements: -1214.57 meV to -155.61 meV
       hydro 2 p 1.7
       hydro 3 d 6
       hydro 2 s 4.9
  #  "Second tier" - improvements: -67.75 meV to -5.23 meV
       hydro 4 f 9.8
       hydro 3 p 5.2
       hydro 3 s 4.3
       hydro 5 g 14.4
       hydro 3 d 6.2
  #  "Third tier" - improvements: -2.43 meV to -0.60 meV
  #     hydro 2 p 5.6
  #     hydro 2 s 1.4
  #     hydro 3 d 4.9
  #     hydro 4 f 11.2
  #  "Fourth tier" - improvements: -0.39 meV to -0.18 meV
  #     hydro 2 p 2.1
  #     hydro 5 g 16.4
  #     hydro 4 d 13.2
  #     hydro 3 s 13.6
  #     hydro 4 f 17.6
  #  Further basis functions - improvements: -0.08 meV and below
  #     hydro 3 s 2
  #     hydro 3 p 6
  #     hydro 4 d 20
  
  -----------------------------------------------------------------------
  Completed first pass over input file control.in .
  -----------------------------------------------------------------------
  
  
  -----------------------------------------------------------------------
  Parsing geometry.in (first pass over file, find array dimensions only).
  The contents of geometry.in will be repeated verbatim below
  unless switched off by setting 'verbatim_writeout .false.' .
  in the first line of geometry.in .
  -----------------------------------------------------------------------
  
  #=======================================================
  # FHI-aims file: geometry.in
  # Created using the Atomic Simulation Environment (ASE)
  # Wed Apr 17 11:48:28 2024
  #=======================================================
  lattice_vector 17.5512100000000011 0.0000000000000000 0.0000000000000000
  lattice_vector 0.0000000000000000 11.3198399999999992 0.0000000000000000
  lattice_vector -3.4479348393071994 0.0000000000000000 15.5192980071229911
  atom 1.5371300000000001 6.0101415899999999 3.4027910399999999 C
  atom 14.2954000000000008 0.3502215900000000 4.3664410399999998 C
  atom 12.5714000000000006 5.3245815900000002 12.1261210399999992 C
  atom -0.1868440000000000 10.9845015900000007 11.1624210399999999 C
  atom -0.1530740000000000 6.6976015899999997 2.4450710400000002 H
  atom 15.9855999999999998 1.0376915900000001 5.3241610399999999 H
  atom 14.2615999999999996 4.6371115899999999 13.0838210400000001 H
  atom -1.8770400000000000 10.2970015900000007 10.2047210400000008 H
  atom 2.6613500000000001 7.4664415899999996 5.2335210400000003 C
  atom 13.1712000000000007 1.8065215900000000 2.5357110399999998 C
  atom 11.4472000000000005 3.8682715900000000 10.2953210399999993 C
  atom 0.9373770000000000 9.5281915900000005 12.9931210400000001 C
  atom 1.8914400000000000 9.3130715899999998 5.7301110399999997 H
  atom 13.9411000000000005 3.6531515899999998 2.0391210399999999 H
  atom 12.2171000000000003 2.0216415900000002 9.7987810399999997 H
  atom 0.1674680000000000 7.6815615900000003 13.4897210399999992 H
  atom 4.8703000000000003 6.6123915899999997 6.5191810400000003 C
  atom 10.9621999999999993 0.9524795900000000 1.2500510400000000 C
  atom 9.2382700000000000 4.7223215900000000 9.0097010399999995 C
  atom 3.1463299999999998 10.3822015899999993 14.2788210400000004 C
  atom 6.0656600000000003 8.0595415900000003 8.3845210399999992 C
  atom 6.3189399999999996 2.3996215900000002 14.9040210399999999 C
  atom 8.0429200000000005 3.2751715899999998 7.1443710400000002 C
  atom 7.7896200000000002 8.9350915900000007 0.6248670400000000 C
  atom 5.2933000000000003 9.9084715899999996 8.8793310400000003 H
  atom 7.0913000000000004 4.2485615900000004 14.4092210400000003 H
  atom 8.8152799999999996 1.4262415900000001 6.6495510400000004 H
  atom 7.0172600000000003 7.0861615899999997 1.1196810399999999 H
  atom 8.2192200000000000 7.1775615899999998 9.6474710399999992 C
  atom 4.1653799999999999 1.5176515900000001 13.6410210400000000 C
  atom 5.8893599999999999 4.1571515899999998 5.8814210400000002 C
  atom 9.9431799999999999 9.8170715899999994 1.8878110400000001 C
  atom 4.6676799999999998 2.7087915900000001 3.9694610400000001 C
  atom 11.1648999999999994 8.3687215899999998 3.7997710400000000 C
  atom 9.4408899999999996 8.6259215900000008 11.5594210400000001 C
  atom 2.9437099999999998 2.9660015899999999 11.7291210400000008 C
  atom 5.4458799999999998 0.8658215900000000 3.4819510400000002 H
  atom 10.3866999999999994 6.5257415900000000 4.2872810399999999 H
  atom 8.6626899999999996 10.4689015899999998 12.0469210400000009 H
  atom 3.7219099999999998 4.8089715899999996 11.2416210400000001 H
  atom 2.5593200000000000 3.6096915900000002 2.7545410399999999 C
  atom 13.2731999999999992 9.2696115900000002 5.0146910399999998 C
  atom 11.5493000000000006 7.7250315900000004 12.7743210400000002 C
  atom 0.8353450000000000 2.0651115899999999 10.5142210400000007 C
  atom 1.6600299999999999 2.4719815900000000 1.2890210400000000 H
  atom 14.1724999999999994 8.1319015900000000 6.4802110400000004 H
  atom 12.4484999999999992 8.8627315899999992 14.2398210400000007 H
  atom -0.0639424000000000 3.2028115900000000 9.0486610400000007 H
  
  -----------------------------------------------------------------------
  Completed first pass over input file geometry.in .
  -----------------------------------------------------------------------
  

  Basic array size parameters:
  | Number of species                 :        2
  | Number of atoms                   :       48
  | Number of lattice vectors         :        3
  | Max. basis fn. angular momentum   :        4
  | Max. atomic/ionic basis occupied n:        2
  | Max. number of basis fn. types    :        2
  | Max. radial fns per species/type  :        8
  | Max. logarithmic grid size        :     1277
  | Max. radial integration grid size :       69
  | Max. angular integration grid size:      434
  | Max. angular grid division number :        8
  | Radial grid for Hartree potential :     1277
  | Number of spin channels           :        1

------------------------------------------------------------
          Reading file control.in.
------------------------------------------------------------
  XC: Using Perdew-Wang parametrisation of Ceperley-Alder LDA.
  Spin treatment: No spin polarisation.
  Non-relativistic treatment of kinetic energy.
  Charge =   0.000000E+00: Neutral system requested explicitly.
  Found k-point grid:         2         2         2
  DFPT calculation will begin after the DFT/HF calculation.
  Charge density mixing - mixing parameter:     0.7500
  Forces will not be computed.
  Using external wrapper (i-PI) for performing (path integral) molecular dynamics
  **Attention: initial geometry.in file will be ignored!
  Will pass polarizability to PIMD wrapper i-PI
  Requested output level: MD_light
 
  Reading configuration options for species H                   .
  | Found nuclear charge :   1.0000
  | Found atomic mass :    1.00794000000000      amu
  | Found l_max for Hartree potential  :   6
  | Found cutoff potl. onset [A], width [A], scale factor :    4.00000    2.00000    1.00000
  | Threshold for basis-dependent cutoff potential is   0.100000E-03
  | Found data for basic radial integration grid :    24 points, outermost radius =    7.000 A
  | Found multiplier for basic radial grid :   2
  | Found angular grid specification: user-specified.
  | Specified grid contains     6 separate shells.
  | Check grid settings after all constraints further below.
  | Found free-atom valence shell :  1 s   1.000
  | No ionic wave fns used. Skipping ion_occ.
  | Found hydrogenic basis function :  2 s   2.100
  | Found hydrogenic basis function :  2 p   3.500
  | Found hydrogenic basis function :  1 s   0.850
  | Found hydrogenic basis function :  2 p   3.700
  | Found hydrogenic basis function :  2 s   1.200
  | Found hydrogenic basis function :  3 d   7.000
  Species H                   : Missing cutoff potential type.
  Defaulting to exp(1/x)/(1-x)^2 type cutoff potential.
  Species H : No 'logarithmic' tag. Using default grid for free atom:
  | Default logarithmic grid data [bohr] : 0.1000E-03 0.1000E+03 0.1012E+01
  Species H : On-site basis accuracy parameter (for Gram-Schmidt orthonormalisation) not specified.
  Using default value basis_acc =  0.1000000E-03.
  Species H                   : Using default innermost maximum threshold i_radial=  2 for radial functions.
  Species H                   : Default cutoff onset for free atom density etc. : 0.40000000E+01 AA.
  Species H                   : Basic radial grid will be enhanced according to radial_multiplier =   2, to contain    49 grid points.
 
  Reading configuration options for species C                   .
  | Found nuclear charge :   6.0000
  | Found atomic mass :    12.0107000000000      amu
  | Found l_max for Hartree potential  :   6
  | Found cutoff potl. onset [A], width [A], scale factor :    4.00000    2.00000    1.00000
  | Threshold for basis-dependent cutoff potential is   0.100000E-03
  | Found data for basic radial integration grid :    34 points, outermost radius =    7.000 A
  | Found multiplier for basic radial grid :   2
  | Found angular grid specification: user-specified.
  | Specified grid contains     6 separate shells.
  | Check grid settings after all constraints further below.
  | Found free-atom valence shell :  2 s   2.000
  | Found free-atom valence shell :  2 p   2.000
  | No ionic wave fns used. Skipping ion_occ.
  | No ionic wave fns used. Skipping ion_occ.
  | Found hydrogenic basis function :  2 p   1.700
  | Found hydrogenic basis function :  3 d   6.000
  | Found hydrogenic basis function :  2 s   4.900
  | Found hydrogenic basis function :  4 f   9.800
  | Found hydrogenic basis function :  3 p   5.200
  | Found hydrogenic basis function :  3 s   4.300
  | Found hydrogenic basis function :  5 g  14.400
  | Found hydrogenic basis function :  3 d   6.200
  Species C                   : Missing cutoff potential type.
  Defaulting to exp(1/x)/(1-x)^2 type cutoff potential.
  Species C : No 'logarithmic' tag. Using default grid for free atom:
  | Default logarithmic grid data [bohr] : 0.1000E-03 0.1000E+03 0.1012E+01
  Species C : On-site basis accuracy parameter (for Gram-Schmidt orthonormalisation) not specified.
  Using default value basis_acc =  0.1000000E-03.
  Species C                   : Using default innermost maximum threshold i_radial=  2 for radial functions.
  Species C                   : Default cutoff onset for free atom density etc. : 0.40000000E+01 AA.
  Species C                   : Basic radial grid will be enhanced according to radial_multiplier =   2, to contain    69 grid points.
 
  Finished reading input file 'control.in'.
 
------------------------------------------------------------


------------------------------------------------------------
          Reading geometry description geometry.in.
------------------------------------------------------------
  | The smallest distance between any two atoms is         2.05907501 AA.
  | The first atom of this pair is atom number                     36 .
  | The second atom of this pair is atom number                    40 .
  | Wigner-Seitz cell of the first atom image           0     0     0 .
  | (The Wigner-Seitz cell of the second atom is 0 0 0  by definition.)

  Symmetry information by spglib:
  | Precision set to  0.1E-04
  | Number of Operations  : 1
  | Space group           : 1
  | International         : P1
  | Schoenflies           : C1^1
  Input structure read successfully.
  The structure contains       48 atoms,  and a total of        188.000 electrons.

  Input geometry:
  | Unit cell:
  |       17.55121000        0.00000000        0.00000000
  |        0.00000000       11.31984000        0.00000000
  |       -3.44793484        0.00000000       15.51929801
  | Atomic structure:
  |       Atom                x [A]            y [A]            z [A]
  |    1: Species C             1.53713000        6.01014159        3.40279104
  |    2: Species C            14.29540000        0.35022159        4.36644104
  |    3: Species C            12.57140000        5.32458159       12.12612104
  |    4: Species C            -0.18684400       10.98450159       11.16242104
  |    5: Species H            -0.15307400        6.69760159        2.44507104
  |    6: Species H            15.98560000        1.03769159        5.32416104
  |    7: Species H            14.26160000        4.63711159       13.08382104
  |    8: Species H            -1.87704000       10.29700159       10.20472104
  |    9: Species C             2.66135000        7.46644159        5.23352104
  |   10: Species C            13.17120000        1.80652159        2.53571104
  |   11: Species C            11.44720000        3.86827159       10.29532104
  |   12: Species C             0.93737700        9.52819159       12.99312104
  |   13: Species H             1.89144000        9.31307159        5.73011104
  |   14: Species H            13.94110000        3.65315159        2.03912104
  |   15: Species H            12.21710000        2.02164159        9.79878104
  |   16: Species H             0.16746800        7.68156159       13.48972104
  |   17: Species C             4.87030000        6.61239159        6.51918104
  |   18: Species C            10.96220000        0.95247959        1.25005104
  |   19: Species C             9.23827000        4.72232159        9.00970104
  |   20: Species C             3.14633000       10.38220159       14.27882104
  |   21: Species C             6.06566000        8.05954159        8.38452104
  |   22: Species C             6.31894000        2.39962159       14.90402104
  |   23: Species C             8.04292000        3.27517159        7.14437104
  |   24: Species C             7.78962000        8.93509159        0.62486704
  |   25: Species H             5.29330000        9.90847159        8.87933104
  |   26: Species H             7.09130000        4.24856159       14.40922104
  |   27: Species H             8.81528000        1.42624159        6.64955104
  |   28: Species H             7.01726000        7.08616159        1.11968104
  |   29: Species C             8.21922000        7.17756159        9.64747104
  |   30: Species C             4.16538000        1.51765159       13.64102104
  |   31: Species C             5.88936000        4.15715159        5.88142104
  |   32: Species C             9.94318000        9.81707159        1.88781104
  |   33: Species C             4.66768000        2.70879159        3.96946104
  |   34: Species C            11.16490000        8.36872159        3.79977104
  |   35: Species C             9.44089000        8.62592159       11.55942104
  |   36: Species C             2.94371000        2.96600159       11.72912104
  |   37: Species H             5.44588000        0.86582159        3.48195104
  |   38: Species H            10.38670000        6.52574159        4.28728104
  |   39: Species H             8.66269000       10.46890159       12.04692104
  |   40: Species H             3.72191000        4.80897159       11.24162104
  |   41: Species C             2.55932000        3.60969159        2.75454104
  |   42: Species C            13.27320000        9.26961159        5.01469104
  |   43: Species C            11.54930000        7.72503159       12.77432104
  |   44: Species C             0.83534500        2.06511159       10.51422104
  |   45: Species H             1.66003000        2.47198159        1.28902104
  |   46: Species H            14.17250000        8.13190159        6.48021104
  |   47: Species H            12.44850000        8.86273159       14.23982104
  |   48: Species H            -0.06394240        3.20281159        9.04866104

  Lattice parameters for 3D lattice (in Angstroms) :    17.551210   11.319840   15.897700
  Angle(s) between unit vectors (in degrees)       :    90.000000  102.526000   90.000000


  Quantities derived from the lattice vectors (in Angstrom^-1):
  | Reciprocal lattice vector 1:  0.357992  0.000000  0.079535
  | Reciprocal lattice vector 2:  0.000000  0.555060  0.000000
  | Reciprocal lattice vector 3:  0.000000  0.000000  0.404863
  | Unit cell volume                               :   0.308333E+04  Angstrom^3

 
  Finished reading input file 'geometry.in'.
 

 
  Consistency checks for stacksize environment parameter are next.
 
  | Maximum stacksize for task 0: unlimited
  | Maximum stacksize for task 1: unlimited
  | Maximum stacksize for task 2: unlimited
  | Maximum stacksize for task 3: unlimited
  | Maximum stacksize for task 4: unlimited
  | Maximum stacksize for task 5: unlimited
  | Maximum stacksize for task 6: unlimited
  | Maximum stacksize for task 7: unlimited
  | Maximum stacksize for task 8: unlimited
  | Maximum stacksize for task 9: unlimited
  | Maximum stacksize for task 10: unlimited
  | Maximum stacksize for task 11: unlimited
  | Maximum stacksize for task 12: unlimited
  | Maximum stacksize for task 13: unlimited
  | Maximum stacksize for task 14: unlimited
  | Maximum stacksize for task 15: unlimited
  | Maximum stacksize for task 16: unlimited
  | Maximum stacksize for task 17: unlimited
  | Maximum stacksize for task 18: unlimited
  | Maximum stacksize for task 19: unlimited
  | Maximum stacksize for task 20: unlimited
  | Maximum stacksize for task 21: unlimited
  | Maximum stacksize for task 22: unlimited
  | Maximum stacksize for task 23: unlimited
  | Maximum stacksize for task 24: unlimited
  | Maximum stacksize for task 25: unlimited
  | Maximum stacksize for task 26: unlimited
  | Maximum stacksize for task 27: unlimited
  | Maximum stacksize for task 28: unlimited
  | Maximum stacksize for task 29: unlimited
  | Maximum stacksize for task 30: unlimited
  | Maximum stacksize for task 31: unlimited
  | Maximum stacksize for task 32: unlimited
  | Maximum stacksize for task 33: unlimited
  | Maximum stacksize for task 34: unlimited
  | Maximum stacksize for task 35: unlimited
  | Maximum stacksize for task 36: unlimited
  | Maximum stacksize for task 37: unlimited
  | Maximum stacksize for task 38: unlimited
  | Maximum stacksize for task 39: unlimited
  | Maximum stacksize for task 40: unlimited
  | Maximum stacksize for task 41: unlimited
  | Maximum stacksize for task 42: unlimited
  | Maximum stacksize for task 43: unlimited
  | Maximum stacksize for task 44: unlimited
  | Maximum stacksize for task 45: unlimited
  | Maximum stacksize for task 46: unlimited
  | Maximum stacksize for task 47: unlimited
  | Maximum stacksize for task 48: unlimited
  | Maximum stacksize for task 49: unlimited
  | Maximum stacksize for task 50: unlimited
  | Maximum stacksize for task 51: unlimited
  | Maximum stacksize for task 52: unlimited
  | Maximum stacksize for task 53: unlimited
  | Maximum stacksize for task 54: unlimited
  | Maximum stacksize for task 55: unlimited
  | Maximum stacksize for task 56: unlimited
  | Maximum stacksize for task 57: unlimited
  | Maximum stacksize for task 58: unlimited
  | Maximum stacksize for task 59: unlimited
  | Maximum stacksize for task 60: unlimited
  | Maximum stacksize for task 61: unlimited
  | Maximum stacksize for task 62: unlimited
  | Maximum stacksize for task 63: unlimited
  | Maximum stacksize for task 64: unlimited
  | Maximum stacksize for task 65: unlimited
  | Maximum stacksize for task 66: unlimited
  | Maximum stacksize for task 67: unlimited
  | Maximum stacksize for task 68: unlimited
  | Maximum stacksize for task 69: unlimited
  | Maximum stacksize for task 70: unlimited
  | Maximum stacksize for task 71: unlimited
  | Maximum stacksize for task 72: unlimited
  | Maximum stacksize for task 73: unlimited
  | Maximum stacksize for task 74: unlimited
  | Maximum stacksize for task 75: unlimited
  | Maximum stacksize for task 76: unlimited
  | Maximum stacksize for task 77: unlimited
  | Maximum stacksize for task 78: unlimited
  | Maximum stacksize for task 79: unlimited
  | Maximum stacksize for task 80: unlimited
  | Maximum stacksize for task 81: unlimited
  | Maximum stacksize for task 82: unlimited
  | Maximum stacksize for task 83: unlimited
  | Maximum stacksize for task 84: unlimited
  | Maximum stacksize for task 85: unlimited
  | Maximum stacksize for task 86: unlimited
  | Maximum stacksize for task 87: unlimited
  | Maximum stacksize for task 88: unlimited
  | Maximum stacksize for task 89: unlimited
  | Maximum stacksize for task 90: unlimited
  | Maximum stacksize for task 91: unlimited
  | Maximum stacksize for task 92: unlimited
  | Maximum stacksize for task 93: unlimited
  | Maximum stacksize for task 94: unlimited
  | Maximum stacksize for task 95: unlimited
  | Maximum stacksize for task 96: unlimited
  | Maximum stacksize for task 97: unlimited
  | Maximum stacksize for task 98: unlimited
  | Maximum stacksize for task 99: unlimited
  | Maximum stacksize for task 100: unlimited
  | Maximum stacksize for task 101: unlimited
  | Maximum stacksize for task 102: unlimited
  | Maximum stacksize for task 103: unlimited
  | Maximum stacksize for task 104: unlimited
  | Maximum stacksize for task 105: unlimited
  | Maximum stacksize for task 106: unlimited
  | Maximum stacksize for task 107: unlimited
  | Maximum stacksize for task 108: unlimited
  | Maximum stacksize for task 109: unlimited
  | Maximum stacksize for task 110: unlimited
  | Maximum stacksize for task 111: unlimited
  | Maximum stacksize for task 112: unlimited
  | Maximum stacksize for task 113: unlimited
  | Maximum stacksize for task 114: unlimited
  | Maximum stacksize for task 115: unlimited
  | Maximum stacksize for task 116: unlimited
  | Maximum stacksize for task 117: unlimited
  | Maximum stacksize for task 118: unlimited
  | Maximum stacksize for task 119: unlimited
  | Maximum stacksize for task 120: unlimited
  | Maximum stacksize for task 121: unlimited
  | Maximum stacksize for task 122: unlimited
  | Maximum stacksize for task 123: unlimited
  | Maximum stacksize for task 124: unlimited
  | Maximum stacksize for task 125: unlimited
  | Maximum stacksize for task 126: unlimited
  | Maximum stacksize for task 127: unlimited
  | Maximum stacksize for task 128: unlimited
  | Maximum stacksize for task 129: unlimited
  | Maximum stacksize for task 130: unlimited
  | Maximum stacksize for task 131: unlimited
  | Maximum stacksize for task 132: unlimited
  | Maximum stacksize for task 133: unlimited
  | Maximum stacksize for task 134: unlimited
  | Maximum stacksize for task 135: unlimited
  | Maximum stacksize for task 136: unlimited
  | Maximum stacksize for task 137: unlimited
  | Maximum stacksize for task 138: unlimited
  | Maximum stacksize for task 139: unlimited
  | Maximum stacksize for task 140: unlimited
  | Maximum stacksize for task 141: unlimited
  | Maximum stacksize for task 142: unlimited
  | Maximum stacksize for task 143: unlimited
  | Maximum stacksize for task 144: unlimited
  | Maximum stacksize for task 145: unlimited
  | Maximum stacksize for task 146: unlimited
  | Maximum stacksize for task 147: unlimited
  | Maximum stacksize for task 148: unlimited
  | Maximum stacksize for task 149: unlimited
  | Maximum stacksize for task 150: unlimited
  | Maximum stacksize for task 151: unlimited
  | Maximum stacksize for task 152: unlimited
  | Maximum stacksize for task 153: unlimited
  | Maximum stacksize for task 154: unlimited
  | Maximum stacksize for task 155: unlimited
  | Maximum stacksize for task 156: unlimited
  | Maximum stacksize for task 157: unlimited
  | Maximum stacksize for task 158: unlimited
  | Maximum stacksize for task 159: unlimited
  | Maximum stacksize for task 160: unlimited
  | Maximum stacksize for task 161: unlimited
  | Maximum stacksize for task 162: unlimited
  | Maximum stacksize for task 163: unlimited
  | Maximum stacksize for task 164: unlimited
  | Maximum stacksize for task 165: unlimited
  | Maximum stacksize for task 166: unlimited
  | Maximum stacksize for task 167: unlimited
  | Maximum stacksize for task 168: unlimited
  | Maximum stacksize for task 169: unlimited
  | Maximum stacksize for task 170: unlimited
  | Maximum stacksize for task 171: unlimited
  | Maximum stacksize for task 172: unlimited
  | Maximum stacksize for task 173: unlimited
  | Maximum stacksize for task 174: unlimited
  | Maximum stacksize for task 175: unlimited
  | Maximum stacksize for task 176: unlimited
  | Maximum stacksize for task 177: unlimited
  | Maximum stacksize for task 178: unlimited
  | Maximum stacksize for task 179: unlimited
  | Maximum stacksize for task 180: unlimited
  | Maximum stacksize for task 181: unlimited
  | Maximum stacksize for task 182: unlimited
  | Maximum stacksize for task 183: unlimited
  | Maximum stacksize for task 184: unlimited
  | Maximum stacksize for task 185: unlimited
  | Maximum stacksize for task 186: unlimited
  | Maximum stacksize for task 187: unlimited
  | Maximum stacksize for task 188: unlimited
  | Maximum stacksize for task 189: unlimited
  | Maximum stacksize for task 190: unlimited
  | Maximum stacksize for task 191: unlimited
  | Maximum stacksize for task 192: unlimited
  | Maximum stacksize for task 193: unlimited
  | Maximum stacksize for task 194: unlimited
  | Maximum stacksize for task 195: unlimited
  | Maximum stacksize for task 196: unlimited
  | Maximum stacksize for task 197: unlimited
  | Maximum stacksize for task 198: unlimited
  | Maximum stacksize for task 199: unlimited
  | Maximum stacksize for task 200: unlimited
  | Maximum stacksize for task 201: unlimited
  | Maximum stacksize for task 202: unlimited
  | Maximum stacksize for task 203: unlimited
  | Maximum stacksize for task 204: unlimited
  | Maximum stacksize for task 205: unlimited
  | Maximum stacksize for task 206: unlimited
  | Maximum stacksize for task 207: unlimited
  | Maximum stacksize for task 208: unlimited
  | Maximum stacksize for task 209: unlimited
  | Maximum stacksize for task 210: unlimited
  | Maximum stacksize for task 211: unlimited
  | Maximum stacksize for task 212: unlimited
  | Maximum stacksize for task 213: unlimited
  | Maximum stacksize for task 214: unlimited
  | Maximum stacksize for task 215: unlimited
  | Maximum stacksize for task 216: unlimited
  | Maximum stacksize for task 217: unlimited
  | Maximum stacksize for task 218: unlimited
  | Maximum stacksize for task 219: unlimited
  | Maximum stacksize for task 220: unlimited
  | Maximum stacksize for task 221: unlimited
  | Maximum stacksize for task 222: unlimited
  | Maximum stacksize for task 223: unlimited
  | Maximum stacksize for task 224: unlimited
  | Maximum stacksize for task 225: unlimited
  | Maximum stacksize for task 226: unlimited
  | Maximum stacksize for task 227: unlimited
  | Maximum stacksize for task 228: unlimited
  | Maximum stacksize for task 229: unlimited
  | Maximum stacksize for task 230: unlimited
  | Maximum stacksize for task 231: unlimited
  | Maximum stacksize for task 232: unlimited
  | Maximum stacksize for task 233: unlimited
  | Maximum stacksize for task 234: unlimited
  | Maximum stacksize for task 235: unlimited
  | Maximum stacksize for task 236: unlimited
  | Maximum stacksize for task 237: unlimited
  | Maximum stacksize for task 238: unlimited
  | Maximum stacksize for task 239: unlimited
  | Maximum stacksize for task 240: unlimited
  | Maximum stacksize for task 241: unlimited
  | Maximum stacksize for task 242: unlimited
  | Maximum stacksize for task 243: unlimited
  | Maximum stacksize for task 244: unlimited
  | Maximum stacksize for task 245: unlimited
  | Maximum stacksize for task 246: unlimited
  | Maximum stacksize for task 247: unlimited
  | Maximum stacksize for task 248: unlimited
  | Maximum stacksize for task 249: unlimited
  | Maximum stacksize for task 250: unlimited
  | Maximum stacksize for task 251: unlimited
  | Maximum stacksize for task 252: unlimited
  | Maximum stacksize for task 253: unlimited
  | Maximum stacksize for task 254: unlimited
  | Maximum stacksize for task 255: unlimited
  | Maximum stacksize for task 256: unlimited
  | Maximum stacksize for task 257: unlimited
  | Maximum stacksize for task 258: unlimited
  | Maximum stacksize for task 259: unlimited
  | Maximum stacksize for task 260: unlimited
  | Maximum stacksize for task 261: unlimited
  | Maximum stacksize for task 262: unlimited
  | Maximum stacksize for task 263: unlimited
  | Maximum stacksize for task 264: unlimited
  | Maximum stacksize for task 265: unlimited
  | Maximum stacksize for task 266: unlimited
  | Maximum stacksize for task 267: unlimited
  | Maximum stacksize for task 268: unlimited
  | Maximum stacksize for task 269: unlimited
  | Maximum stacksize for task 270: unlimited
  | Maximum stacksize for task 271: unlimited
  | Maximum stacksize for task 272: unlimited
  | Maximum stacksize for task 273: unlimited
  | Maximum stacksize for task 274: unlimited
  | Maximum stacksize for task 275: unlimited
  | Maximum stacksize for task 276: unlimited
  | Maximum stacksize for task 277: unlimited
  | Maximum stacksize for task 278: unlimited
  | Maximum stacksize for task 279: unlimited
  | Maximum stacksize for task 280: unlimited
  | Maximum stacksize for task 281: unlimited
  | Maximum stacksize for task 282: unlimited
  | Maximum stacksize for task 283: unlimited
  | Maximum stacksize for task 284: unlimited
  | Maximum stacksize for task 285: unlimited
  | Maximum stacksize for task 286: unlimited
  | Maximum stacksize for task 287: unlimited
  | Current stacksize for task 0: unlimited
  | Current stacksize for task 1: unlimited
  | Current stacksize for task 2: unlimited
  | Current stacksize for task 3: unlimited
  | Current stacksize for task 4: unlimited
  | Current stacksize for task 5: unlimited
  | Current stacksize for task 6: unlimited
  | Current stacksize for task 7: unlimited
  | Current stacksize for task 8: unlimited
  | Current stacksize for task 9: unlimited
  | Current stacksize for task 10: unlimited
  | Current stacksize for task 11: unlimited
  | Current stacksize for task 12: unlimited
  | Current stacksize for task 13: unlimited
  | Current stacksize for task 14: unlimited
  | Current stacksize for task 15: unlimited
  | Current stacksize for task 16: unlimited
  | Current stacksize for task 17: unlimited
  | Current stacksize for task 18: unlimited
  | Current stacksize for task 19: unlimited
  | Current stacksize for task 20: unlimited
  | Current stacksize for task 21: unlimited
  | Current stacksize for task 22: unlimited
  | Current stacksize for task 23: unlimited
  | Current stacksize for task 24: unlimited
  | Current stacksize for task 25: unlimited
  | Current stacksize for task 26: unlimited
  | Current stacksize for task 27: unlimited
  | Current stacksize for task 28: unlimited
  | Current stacksize for task 29: unlimited
  | Current stacksize for task 30: unlimited
  | Current stacksize for task 31: unlimited
  | Current stacksize for task 32: unlimited
  | Current stacksize for task 33: unlimited
  | Current stacksize for task 34: unlimited
  | Current stacksize for task 35: unlimited
  | Current stacksize for task 36: unlimited
  | Current stacksize for task 37: unlimited
  | Current stacksize for task 38: unlimited
  | Current stacksize for task 39: unlimited
  | Current stacksize for task 40: unlimited
  | Current stacksize for task 41: unlimited
  | Current stacksize for task 42: unlimited
  | Current stacksize for task 43: unlimited
  | Current stacksize for task 44: unlimited
  | Current stacksize for task 45: unlimited
  | Current stacksize for task 46: unlimited
  | Current stacksize for task 47: unlimited
  | Current stacksize for task 48: unlimited
  | Current stacksize for task 49: unlimited
  | Current stacksize for task 50: unlimited
  | Current stacksize for task 51: unlimited
  | Current stacksize for task 52: unlimited
  | Current stacksize for task 53: unlimited
  | Current stacksize for task 54: unlimited
  | Current stacksize for task 55: unlimited
  | Current stacksize for task 56: unlimited
  | Current stacksize for task 57: unlimited
  | Current stacksize for task 58: unlimited
  | Current stacksize for task 59: unlimited
  | Current stacksize for task 60: unlimited
  | Current stacksize for task 61: unlimited
  | Current stacksize for task 62: unlimited
  | Current stacksize for task 63: unlimited
  | Current stacksize for task 64: unlimited
  | Current stacksize for task 65: unlimited
  | Current stacksize for task 66: unlimited
  | Current stacksize for task 67: unlimited
  | Current stacksize for task 68: unlimited
  | Current stacksize for task 69: unlimited
  | Current stacksize for task 70: unlimited
  | Current stacksize for task 71: unlimited
  | Current stacksize for task 72: unlimited
  | Current stacksize for task 73: unlimited
  | Current stacksize for task 74: unlimited
  | Current stacksize for task 75: unlimited
  | Current stacksize for task 76: unlimited
  | Current stacksize for task 77: unlimited
  | Current stacksize for task 78: unlimited
  | Current stacksize for task 79: unlimited
  | Current stacksize for task 80: unlimited
  | Current stacksize for task 81: unlimited
  | Current stacksize for task 82: unlimited
  | Current stacksize for task 83: unlimited
  | Current stacksize for task 84: unlimited
  | Current stacksize for task 85: unlimited
  | Current stacksize for task 86: unlimited
  | Current stacksize for task 87: unlimited
  | Current stacksize for task 88: unlimited
  | Current stacksize for task 89: unlimited
  | Current stacksize for task 90: unlimited
  | Current stacksize for task 91: unlimited
  | Current stacksize for task 92: unlimited
  | Current stacksize for task 93: unlimited
  | Current stacksize for task 94: unlimited
  | Current stacksize for task 95: unlimited
  | Current stacksize for task 96: unlimited
  | Current stacksize for task 97: unlimited
  | Current stacksize for task 98: unlimited
  | Current stacksize for task 99: unlimited
  | Current stacksize for task 100: unlimited
  | Current stacksize for task 101: unlimited
  | Current stacksize for task 102: unlimited
  | Current stacksize for task 103: unlimited
  | Current stacksize for task 104: unlimited
  | Current stacksize for task 105: unlimited
  | Current stacksize for task 106: unlimited
  | Current stacksize for task 107: unlimited
  | Current stacksize for task 108: unlimited
  | Current stacksize for task 109: unlimited
  | Current stacksize for task 110: unlimited
  | Current stacksize for task 111: unlimited
  | Current stacksize for task 112: unlimited
  | Current stacksize for task 113: unlimited
  | Current stacksize for task 114: unlimited
  | Current stacksize for task 115: unlimited
  | Current stacksize for task 116: unlimited
  | Current stacksize for task 117: unlimited
  | Current stacksize for task 118: unlimited
  | Current stacksize for task 119: unlimited
  | Current stacksize for task 120: unlimited
  | Current stacksize for task 121: unlimited
  | Current stacksize for task 122: unlimited
  | Current stacksize for task 123: unlimited
  | Current stacksize for task 124: unlimited
  | Current stacksize for task 125: unlimited
  | Current stacksize for task 126: unlimited
  | Current stacksize for task 127: unlimited
  | Current stacksize for task 128: unlimited
  | Current stacksize for task 129: unlimited
  | Current stacksize for task 130: unlimited
  | Current stacksize for task 131: unlimited
  | Current stacksize for task 132: unlimited
  | Current stacksize for task 133: unlimited
  | Current stacksize for task 134: unlimited
  | Current stacksize for task 135: unlimited
  | Current stacksize for task 136: unlimited
  | Current stacksize for task 137: unlimited
  | Current stacksize for task 138: unlimited
  | Current stacksize for task 139: unlimited
  | Current stacksize for task 140: unlimited
  | Current stacksize for task 141: unlimited
  | Current stacksize for task 142: unlimited
  | Current stacksize for task 143: unlimited
  | Current stacksize for task 144: unlimited
  | Current stacksize for task 145: unlimited
  | Current stacksize for task 146: unlimited
  | Current stacksize for task 147: unlimited
  | Current stacksize for task 148: unlimited
  | Current stacksize for task 149: unlimited
  | Current stacksize for task 150: unlimited
  | Current stacksize for task 151: unlimited
  | Current stacksize for task 152: unlimited
  | Current stacksize for task 153: unlimited
  | Current stacksize for task 154: unlimited
  | Current stacksize for task 155: unlimited
  | Current stacksize for task 156: unlimited
  | Current stacksize for task 157: unlimited
  | Current stacksize for task 158: unlimited
  | Current stacksize for task 159: unlimited
  | Current stacksize for task 160: unlimited
  | Current stacksize for task 161: unlimited
  | Current stacksize for task 162: unlimited
  | Current stacksize for task 163: unlimited
  | Current stacksize for task 164: unlimited
  | Current stacksize for task 165: unlimited
  | Current stacksize for task 166: unlimited
  | Current stacksize for task 167: unlimited
  | Current stacksize for task 168: unlimited
  | Current stacksize for task 169: unlimited
  | Current stacksize for task 170: unlimited
  | Current stacksize for task 171: unlimited
  | Current stacksize for task 172: unlimited
  | Current stacksize for task 173: unlimited
  | Current stacksize for task 174: unlimited
  | Current stacksize for task 175: unlimited
  | Current stacksize for task 176: unlimited
  | Current stacksize for task 177: unlimited
  | Current stacksize for task 178: unlimited
  | Current stacksize for task 179: unlimited
  | Current stacksize for task 180: unlimited
  | Current stacksize for task 181: unlimited
  | Current stacksize for task 182: unlimited
  | Current stacksize for task 183: unlimited
  | Current stacksize for task 184: unlimited
  | Current stacksize for task 185: unlimited
  | Current stacksize for task 186: unlimited
  | Current stacksize for task 187: unlimited
  | Current stacksize for task 188: unlimited
  | Current stacksize for task 189: unlimited
  | Current stacksize for task 190: unlimited
  | Current stacksize for task 191: unlimited
  | Current stacksize for task 192: unlimited
  | Current stacksize for task 193: unlimited
  | Current stacksize for task 194: unlimited
  | Current stacksize for task 195: unlimited
  | Current stacksize for task 196: unlimited
  | Current stacksize for task 197: unlimited
  | Current stacksize for task 198: unlimited
  | Current stacksize for task 199: unlimited
  | Current stacksize for task 200: unlimited
  | Current stacksize for task 201: unlimited
  | Current stacksize for task 202: unlimited
  | Current stacksize for task 203: unlimited
  | Current stacksize for task 204: unlimited
  | Current stacksize for task 205: unlimited
  | Current stacksize for task 206: unlimited
  | Current stacksize for task 207: unlimited
  | Current stacksize for task 208: unlimited
  | Current stacksize for task 209: unlimited
  | Current stacksize for task 210: unlimited
  | Current stacksize for task 211: unlimited
  | Current stacksize for task 212: unlimited
  | Current stacksize for task 213: unlimited
  | Current stacksize for task 214: unlimited
  | Current stacksize for task 215: unlimited
  | Current stacksize for task 216: unlimited
  | Current stacksize for task 217: unlimited
  | Current stacksize for task 218: unlimited
  | Current stacksize for task 219: unlimited
  | Current stacksize for task 220: unlimited
  | Current stacksize for task 221: unlimited
  | Current stacksize for task 222: unlimited
  | Current stacksize for task 223: unlimited
  | Current stacksize for task 224: unlimited
  | Current stacksize for task 225: unlimited
  | Current stacksize for task 226: unlimited
  | Current stacksize for task 227: unlimited
  | Current stacksize for task 228: unlimited
  | Current stacksize for task 229: unlimited
  | Current stacksize for task 230: unlimited
  | Current stacksize for task 231: unlimited
  | Current stacksize for task 232: unlimited
  | Current stacksize for task 233: unlimited
  | Current stacksize for task 234: unlimited
  | Current stacksize for task 235: unlimited
  | Current stacksize for task 236: unlimited
  | Current stacksize for task 237: unlimited
  | Current stacksize for task 238: unlimited
  | Current stacksize for task 239: unlimited
  | Current stacksize for task 240: unlimited
  | Current stacksize for task 241: unlimited
  | Current stacksize for task 242: unlimited
  | Current stacksize for task 243: unlimited
  | Current stacksize for task 244: unlimited
  | Current stacksize for task 245: unlimited
  | Current stacksize for task 246: unlimited
  | Current stacksize for task 247: unlimited
  | Current stacksize for task 248: unlimited
  | Current stacksize for task 249: unlimited
  | Current stacksize for task 250: unlimited
  | Current stacksize for task 251: unlimited
  | Current stacksize for task 252: unlimited
  | Current stacksize for task 253: unlimited
  | Current stacksize for task 254: unlimited
  | Current stacksize for task 255: unlimited
  | Current stacksize for task 256: unlimited
  | Current stacksize for task 257: unlimited
  | Current stacksize for task 258: unlimited
  | Current stacksize for task 259: unlimited
  | Current stacksize for task 260: unlimited
  | Current stacksize for task 261: unlimited
  | Current stacksize for task 262: unlimited
  | Current stacksize for task 263: unlimited
  | Current stacksize for task 264: unlimited
  | Current stacksize for task 265: unlimited
  | Current stacksize for task 266: unlimited
  | Current stacksize for task 267: unlimited
  | Current stacksize for task 268: unlimited
  | Current stacksize for task 269: unlimited
  | Current stacksize for task 270: unlimited
  | Current stacksize for task 271: unlimited
  | Current stacksize for task 272: unlimited
  | Current stacksize for task 273: unlimited
  | Current stacksize for task 274: unlimited
  | Current stacksize for task 275: unlimited
  | Current stacksize for task 276: unlimited
  | Current stacksize for task 277: unlimited
  | Current stacksize for task 278: unlimited
  | Current stacksize for task 279: unlimited
  | Current stacksize for task 280: unlimited
  | Current stacksize for task 281: unlimited
  | Current stacksize for task 282: unlimited
  | Current stacksize for task 283: unlimited
  | Current stacksize for task 284: unlimited
  | Current stacksize for task 285: unlimited
  | Current stacksize for task 286: unlimited
  | Current stacksize for task 287: unlimited
 
  Consistency checks for the contents of control.in are next.
 
  MPI_IN_PLACE appears to work with this MPI implementation.
  | Keeping use_mpi_in_place .true. (see manual).
  Target number of points in a grid batch is not set. Defaulting to  100
  Method for grid partitioning is not set. Defaulting to parallel hash+maxmin partitioning.
  Batch size limit is not set. Defaulting to    200
  By default, will store active basis functions for each batch.
  If in need of memory, prune_basis_once .false. can be used to disable this option.
  communication_type for Hartree potential was not specified.
  Defaulting to calc_hartree .
  Defaulting to Pulay charge density mixer.
  Pulay mixer: Number of relevant iterations not set.
  Defaulting to    8 iterations.
  Pulay mixer: Number of initial linear mixing iterations not set.
  Defaulting to    0 iterations.
  Work space size for distributed Hartree potential not set.
  Defaulting to   0.200000E+03 MB.
  Algorithm-dependent basis array size parameters:
  | n_max_pulay                         :        8
  Maximum number of self-consistency iterations not provided.
  Presetting  1000 iterations.
  Presetting      1001 iterations before the initial mixing cycle
  is restarted anyway using the sc_init_iter criterion / keyword.
  Presetting a factor      1.000 between actual scf density residual
  and density convergence criterion sc_accuracy_rho below which sc_init_iter
  takes no effect.
 * No s.c.f. convergence criteria (sc_accuracy_*) were provided in control.in.
 * The run will proceed with a reasonable default guess, but please check whether.
 * the s.c.f. cycles seem to take too much or too little time.
  Geometry relaxation not requested: no relaxation will be performed.
 * Notice: The s.c.f. convergence criterion sc_accuracy_rho was not provided.
 * We used to stop in this case, and ask the user to provide reasonable
 * scf convergence criteria. However, this led some users to employ criteria
 * that led to extremely long run times, e.g., for simple relaxation.
 * We now preset a default value for sc_accuracy_rho if it is not set.
 * You may still wish to check if this setting is too tight or too loose for your needs.
 * Based on n_atoms and forces and force-correction status, FHI-aims chose sc_accuracy_rho =  0.226274E-04 .
  No accuracy limit for integral partition fn. given. Defaulting to  0.1000E-14.
  No threshold value for u(r) in integrations given. Defaulting to  0.1000E-05.
  No occupation type (smearing scheme) given. Defaulting to Gaussian broadening, width =  0.1000E-01 eV.
  The width will be adjusted in iteration number     2 of the first full s.c.f. cycle only.
  S.C.F. convergence parameters will be adjusted in iteration number     2 of the first full s.c.f. cycle only.
  No accuracy for occupation numbers given. Defaulting to  0.1000E-12.
  No threshold value for occupation numbers given. Defaulting to  0.0000E+00.
  No accuracy for fermi level given. Defaulting to  0.1000E-19.
  Maximum # of iterations to find E_F not set. Defaulting to  200.
  Preferred method for the eigenvalue solver ('KS_method') not specified in 'control.in'.
  Calling BLACS routine to test compilation state
  Since ScaLAPACK support is enabled, defaulting to ELPA (via ELSI).
  Will not use alltoall communication since running on < 1024 CPUs.
  Threshold for basis singularities not set.
  Default threshold for basis singularities:  0.1000E-04
  partition_type (choice of integration weights) for integrals was not specified.
  | Using a version of the partition function of Stratmann and coworkers ('stratmann_sparse').
  | At each grid point, the set of atoms used to build the partition table is smoothly restricted to
  | only those atoms whose free-atom density would be non-zero at that grid point.
  Partitioning for Hartree potential was not defined. Using partition_type for integrals.
  | Adjusted default value of keyword multip_moments_threshold to:       0.10000000E-11
  | This value may affect high angular momentum components of the Hartree potential in periodic systems.
  Angular momentum expansion for Kerker preconditioner not set explicitly.
  | Using default value of   0
  No explicit requirement for turning off preconditioner.
  | By default, it will be turned off when the charge convergence reaches
  | sc_accuracy_rho  =   0.226274E-04
  No special mixing parameter while Kerker preconditioner is on.
  Using default: charge_mix_param =     0.7500.
  No q(lm)/r^(l+1) cutoff set for long-range Hartree potential.
  | Using default value of  0.100000E-09 .
  | Verify using the multipole_threshold keyword.
  Defaulting to new monopole extrapolation.
  Density update method: automatic selection selected.
  Using density matrix based charge density update.
  Using density matrix based charge density update.
  Using packed matrix style: index .
  Defaulting to use time-reversal symmetry for k-point grid.
  WARNING: Switching off the compensation of charge integration errors
  on the 3D integration grid, since you have requested a DFPT calculation.
  This is unfortunately necessary since "compensate_multipole_errors" is
  not yet implemented for DFPT.
  Use the "compensate_multipole_errors" flag to overwrite this behaviour.
 
  Consistency checks for the contents of geometry.in are next.
 

  Range separation radius for Ewald summation (hartree_convergence_parameter):      5.00000000 bohr.
  Number of empty states per atom not set in control.in .
  | Since you are using a method that relies on the unoccupied spectrum
  | (MP2,GW,RPA et al.), will use the full Hamiltonian size (see below)
  | as the max. possible number of states (occupied plus empty).

  Structure-dependent array size parameters: 
  | Maximum number of distinct radial functions  :       18
  | Maximum number of basis functions            :     1392
  | Number of Kohn-Sham states (occupied + empty):     1392
------------------------------------------------------------

************************** W A R N I N G *******************************
* You are using the PIMD wrapper. Specifications and positions         *
* in geometry.in will be IGNORED - all is received from the wrapper.   *
* Please make sure species are declared in the same order in           *
* geometry.in and wrapper input.                                       *
************************************************************************


------------------------------------------------------------
          Preparing all fixed parts of the calculation.
------------------------------------------------------------
  Determining machine precision:
    2.225073858507201E-308
  Setting up grids for atomic and cluster calculations.

  Creating wave function, potential, and density for free atoms.
  Runtime choices for atomic solver:
  | atomic solver xc        : PW-LDA
  | compute density gradient: 0
  | compute kinetic density : F

  Species: H

  List of occupied orbitals and eigenvalues:
    n    l              occ      energy [Ha]    energy [eV]
    1    0           1.0000        -0.233220        -6.3462


  Species: C

  List of occupied orbitals and eigenvalues:
    n    l              occ      energy [Ha]    energy [eV]
    1    0           2.0000        -9.946836      -270.6672
    2    0           2.0000        -0.500303       -13.6139
    2    1           2.0000        -0.198612        -5.4045


  Adding cutoff potential to free-atom effective potential.
  Creating fixed part of basis set: Ionic, confined, hydrogenic.
 
  H                    hydrogenic:
 
  List of hydrogenic basis orbitals: 
    n    l      effective z      eigenvalue [eV]  inner max. [A]     outer max. [A]     outer radius [A]   
    2    0         2.100000       -14.9965           0.193243           1.317208           5.373006
    2    1         3.500000       -41.6672           0.602369           0.602369           4.056063
    1    0         0.850000        -9.8292           0.624871           0.624871           5.373006
    2    1         3.700000       -46.5653           0.573622           0.573622           3.910002
    2    0         1.200000        -4.5995           0.334980           2.228188           5.505995
    3    2         7.000000       -74.0753           0.680699           0.680699           3.769201
 
 
  C                    hydrogenic:
 
  List of hydrogenic basis orbitals: 
    n    l      effective z      eigenvalue [eV]  inner max. [A]     outer max. [A]     outer radius [A]   
    2    1         1.700000        -9.8152           1.245706           1.245706           5.401630
    3    2         6.000000       -54.4226           0.792453           0.792453           4.178599
    2    0         4.900000       -81.6681           0.082559           0.562749           3.353238
    4    3         9.800000       -81.6681           0.863254           0.863254           4.028125
    3    1         5.200000       -40.8774           0.305389           1.215618           4.898362
    3    0         4.300000       -27.9508           0.091041           1.610311           5.401630
    5    4        14.400000      -112.8510           0.917666           0.917666           3.883070
    3    2         6.200000       -58.1113           0.763917           0.763917           4.077671
 
  Creating atomic-like basis functions for current effective potential.

  Species H                   :

  List of atomic basis orbitals and eigenvalues:
    n    l      energy [Ha]    energy [eV]    outer radius [A]
    1    0        -0.233220        -6.3462       5.373006


  Species C                   :

  List of atomic basis orbitals and eigenvalues:
    n    l      energy [Ha]    energy [eV]    outer radius [A]
    1    0        -9.946836      -270.6672       1.934409
    2    0        -0.500303       -13.6139       5.271162
    2    1        -0.198612        -5.4045       5.401630

  Assembling full basis from fixed parts.
  | Species H :   atomic orbital   1 s accepted.
  | Species H :    hydro orbital   2 s accepted.
  | Species H :    hydro orbital   1 s accepted.
  | Species H :    hydro orbital   2 s accepted.
  | Species H :    hydro orbital   2 p accepted.
  | Species H :    hydro orbital   2 p accepted.
  | Species H :    hydro orbital   3 d accepted.
  | Species C :   atomic orbital   1 s accepted.
  | Species C :    hydro orbital   2 s accepted.
  | Species C :   atomic orbital   2 s accepted.
  | Species C :    hydro orbital   3 s accepted.
  | Species C :    hydro orbital   3 p accepted.
  | Species C :   atomic orbital   2 p accepted.
  | Species C :    hydro orbital   2 p accepted.
  | Species C :    hydro orbital   3 d accepted.
  | Species C :    hydro orbital   3 d accepted.
  | Species C :    hydro orbital   4 f accepted.
  | Species C :    hydro orbital   5 g accepted.
 
  Basis size parameters after reduction:
  | Total number of radial functions:       18
  | Total number of basis functions :     1392
 
  Per-task memory consumption for arrays in subroutine allocate_ext:
  |           4.446136MB.
  Testing on-site integration grid accuracy.
  |  Species  Function  <phi|h_atom|phi> (log., in eV)  <phi|h_atom|phi> (rad., in eV)
           1        1                 -6.3465499670                 -6.3466517897
           1        2                 13.9255123248                 13.9252158366
           1        3                 42.5820300838                 42.5725529183
           1        4                 44.6080800718                 44.5543339253 ***
           1        5                 28.9862042128                 28.9862042374
           1        6                 59.7424928664                 59.7425632637
           1        7                 60.2977264576                 60.2977262009
           2        8               -270.6671843207               -270.6671828276
           2        9                -10.6108610601                -10.6108827788
           2       10                 16.2274077590                 16.2274214720
           2       11                 49.2561491532                 49.2563829603
           2       12                 14.7877845030                 14.7877813622
           2       13                  3.5625931303                  3.5626465041
           2       14                 11.7852890365                 11.7878514399
           2       15                 29.4361834212                 29.4361837508
           2       16                 54.5768569905                 54.5767697004
           2       17                 59.3658767938                 59.3658767316
           2       18                 93.4519010633                 93.4519011409
 * Note: Onsite integrals marked "***" above are less accurate than
 * onsite_accuracy_threshold =    0.03000 eV. Usually, this is harmless.
 * When in doubt, tighten the "radial" and/or "radial_multiplier" flags to check.

  Preparing densities etc. for the partition functions (integrals / Hartree potential).

  Preparations completed.
  max(cpu_time)          :      0.128 s.
  Wall clock time (cpu1) :      0.210 s.
------------------------------------------------------------

  Initializing index lists of integration centers etc. from given atomic structure:
  Mapping all atomic coordinates to central unit cell.

  Initializing the k-points
  Using symmetry for reducing the k-points
  | k-points reduced from:        8 to        8
  | Number of k-points                             :         8
  | Consuming          1 KiB for k_phase_exx.
  The eigenvectors in the calculations are REAL.
  | Number of basis functions in the Hamiltonian integrals :      6008
  | Number of basis functions in a single unit cell        :      1392
  | Number of centers in hartree potential         :      1180
  | Number of centers in hartree multipole         :       582
  | Number of centers in electron density summation:       470
  | Number of centers in basis integrals           :       502
  | Number of centers in integrals                 :       270
  | Number of centers in hamiltonian               :       472
  | Consuming          3 KiB for k_phase.
  | Number of super-cells (origin) [n_cells]                     :         175
  | Number of super-cells (after PM_index) [n_cells]             :          28
  | Number of super-cells in hamiltonian [n_cells_in_hamiltonian]:          28
  | Size of matrix packed + index [n_hamiltonian_matrix_size] :     1020127
  | Size of matrix packed + index (no_symmetry):     2038653
* Skipping the SCF initialization for now - done inside wrapper      *
  @ DRIVER MODE: Connecting to host:port 130.183.223.64       29568
  @ DRIVER MODE: Message from server: STATUS      
  @ DRIVER MODE: Message from server: STATUS      
  @ DRIVER MODE: Message from server: POSDATA     
  @ DRIVER MODE: Received positions 

  Initializing index lists of integration centers etc. from given atomic structure:
  Mapping all atomic coordinates to central unit cell.

  Initializing the k-points
  Using symmetry for reducing the k-points
  | k-points reduced from:        8 to        8
  | Number of k-points                             :         8
  | Consuming          1 KiB for k_phase_exx.
  The eigenvectors in the calculations are REAL.
  | Number of basis functions in the Hamiltonian integrals :     12967
  | Number of basis functions in a single unit cell        :      1392
  | Number of centers in hartree potential         :      4990
  | Number of centers in hartree multipole         :      2271
  | Number of centers in electron density summation:      1704
  | Number of centers in basis integrals           :      1848
  | Number of centers in integrals                 :       676
  | Number of centers in hamiltonian               :      1714
  | Consuming          9 KiB for k_phase.
  | Number of super-cells (origin) [n_cells]                     :         441
  | Number of super-cells (after PM_index) [n_cells]             :          76
  | Number of super-cells in hamiltonian [n_cells_in_hamiltonian]:          76
  | Size of matrix packed + index [n_hamiltonian_matrix_size] :     6760065
  | Size of matrix packed + index (no_symmetry):    13510401

------------------------------------------------------------
          Begin self-consistency loop: Initialization.

          Date     :  20250212, Time     :  180404.119
[...]

--------------------- CPSCF ---------------------------------------
          Begin CP-self-consistency iteration #    8

  Date     :  20250213, Time     :  134352.689
------------------------------------------------------------

  CPSCF convergence accuracy:
  | Change of first_order_density_matrix     :  0.1289E-01
  Integrating first_order_rho: batch-based integration.
  Time summed over all CPUs for integration: real work     3812.609 s, elapsed     4257.623 s

  Evaluating partitioned Hartree potential by multipole expansion.
  | Analytical far-field extrapolation by fixed multipoles:
  | Hartree multipole sum: apparent total charge =   0.217124E-09
  Summing up the Hartree potential.
  Time summed over all CPUs for potential: real work      184.395 s, elapsed      212.337 s
  | RMS delta_rho error from multipole expansion :   0.202178E+00

  Integrating first-order-Hamiltonian matrix: batch-based integration.
  Time summed over all CPUs for integration: real work     8251.306 s, elapsed     9319.803 s
  End CPSCF iteration #     8                  :  max(cpu_time)    wall_clock(cpu1)
  | Time for this iteration                     :       50.059 s          50.077 s
  | first_order_DM                              :        0.141 s           0.141 s
  | first_order_density                         :       14.801 s          14.789 s
  | first_order_potential                       :        0.748 s           0.748 s
  | first_order_H                               :       32.469 s          32.478 s
  | Solution of Sternheimer eqns.               :        0.024 s           0.024 s
------------------------------------------------------------

--------------------- CPSCF ---------------------------------------
          Begin CP-self-consistency iteration #    9

  Date     :  20250213, Time     :  134442.766
------------------------------------------------------------

  CPSCF convergence accuracy:
  | Change of first_order_density_matrix     :  0.3822E-02
  Integrating first_order_rho: batch-based integration.
  Time summed over all CPUs for integration: real work     3822.492 s, elapsed     4344.841 s

  Evaluating partitioned Hartree potential by multipole expansion.
  | Analytical far-field extrapolation by fixed multipoles:
  | Hartree multipole sum: apparent total charge =   0.217528E-09
  Summing up the Hartree potential.
  Time summed over all CPUs for potential: real work      184.181 s, elapsed      212.503 s
  | RMS delta_rho error from multipole expansion :   0.202157E+00

  Integrating first-order-Hamiltonian matrix: batch-based integration.
  Time summed over all CPUs for integration: real work     8253.086 s, elapsed     9317.815 s
  End CPSCF iteration #     9                  :  max(cpu_time)    wall_clock(cpu1)
  | Time for this iteration                     :       50.374 s          50.389 s
  | first_order_DM                              :        0.148 s           0.148 s
  | first_order_density                         :       15.107 s          15.088 s
  | first_order_potential                       :        0.749 s           0.749 s
  | first_order_H                               :       32.460 s          32.470 s
  | Solution of Sternheimer eqns.               :        0.024 s           0.024 s
------------------------------------------------------------

--------------------- CPSCF ---------------------------------------
          Begin CP-self-consistency iteration #   10

  Date     :  20250213, Time     :  134533.155
------------------------------------------------------------

  CPSCF convergence accuracy:
  | Change of first_order_density_matrix     :  0.2180E-02
  Integrating first_order_rho: batch-based integration.
  Time summed over all CPUs for integration: real work     3820.249 s, elapsed     4343.600 s

  Evaluating partitioned Hartree potential by multipole expansion.
  | Analytical far-field extrapolation by fixed multipoles:
  | Hartree multipole sum: apparent total charge =   0.217019E-09
  Summing up the Hartree potential.
  Time summed over all CPUs for potential: real work      184.305 s, elapsed      211.638 s
  | RMS delta_rho error from multipole expansion :   0.202137E+00

  Integrating first-order-Hamiltonian matrix: batch-based integration.
  Time summed over all CPUs for integration: real work     8252.199 s, elapsed     9322.200 s
  End CPSCF iteration #    10                  :  max(cpu_time)    wall_clock(cpu1)
  | Time for this iteration                     :       50.383 s          50.397 s
  | first_order_DM                              :        0.148 s           0.148 s
  | first_order_density                         :       15.103 s          15.083 s
  | first_order_potential                       :        0.747 s           0.747 s
  | first_order_H                               :       32.477 s          32.486 s
  | Solution of Sternheimer eqns.               :        0.024 s           0.024 s
------------------------------------------------------------

--------------------- CPSCF ---------------------------------------
          Begin CP-self-consistency iteration #   11

  Date     :  20250213, Time     :  134623.552
------------------------------------------------------------

  CPSCF convergence accuracy:
  | Change of first_order_density_matrix     :  0.7873E-03
  Integrating first_order_rho: batch-based integration.
  Time summed over all CPUs for integration: real work     3821.947 s, elapsed     4344.983 s

  Evaluating partitioned Hartree potential by multipole expansion.
  | Analytical far-field extrapolation by fixed multipoles:
  | Hartree multipole sum: apparent total charge =   0.216754E-09
  Summing up the Hartree potential.
  Time summed over all CPUs for potential: real work      184.062 s, elapsed      211.218 s
  | RMS delta_rho error from multipole expansion :   0.202138E+00

  Integrating first-order-Hamiltonian matrix: batch-based integration.
  Time summed over all CPUs for integration: real work     8257.631 s, elapsed     9333.090 s

  CP-self-consistency cycle converged.

  End CPSCF iteration #    11                  :  max(cpu_time)    wall_clock(cpu1)
  | Time for this iteration                     :       50.423 s          50.437 s
  | first_order_DM                              :        0.148 s           0.148 s
  | first_order_density                         :       15.108 s          15.089 s
  | first_order_potential                       :        0.744 s           0.744 s
  | first_order_H                               :       32.515 s          32.524 s
  | Solution of Sternheimer eqns.               :        0.023 s           0.024 s
------------------------------------------------------------
dP_dE (Bohr^3) at every cycle:--->
 (644.321770222225,0.000000000000000E+000) (-2.913125265720459E-004,0.000000000000000E+000) (274.662914204417,0.000000000000000E+000)
 (-3.060320314905512E-004,0.000000000000000E+000) (552.168649665634,0.000000000000000E+000) (2.507193533299350E-003,0.000000000000000E+000)
 (274.692596540064,0.000000000000000E+000) (2.501067192208912E-003,0.000000000000000E+000) (609.603736697415,0.000000000000000E+000)
DFPT polarizability (Bohr^3)        xx        yy        zz        xy        xz        yz
  | Polarizability:--->                       644.321770222                  552.168649666                  609.603736697                   -0.000291313                  274.662914204                    0.002507194

DFPT for dielectric_constant:--->
   3.62599107576206      -1.187270290078898E-006   1.11941330384481
 -1.247260950556347E-006   3.25041278030609       1.021829177272976E-005
   1.11953427686190       1.019332332098085E-005   3.48449462101288

                                               :  max(cpu_time)    wall_clock(cpu1)
  | Time for  dielectric calculation            :        0.000 s           0.000 s
===========================================================================
 ------------------------------------------------------------------------
 Atomic structure that was used in the preceding time step of the wrapper
                         x [A]             y [A]             z [A]
  lattice_vector         9.28770034        0.00000000        0.00000000
  lattice_vector         0.00000000        5.99020135        0.00000000
  lattice_vector        -1.82456854        0.00000000        8.21245882

            atom         0.81340591        3.18032684        1.80071663  C
            atom         7.56480785        0.18522604        2.31066733  C
            atom         6.65248969        2.81754429        6.41690382  C
            atom        -0.09886533        5.81264479        5.90694523  C
            atom        -0.08091321        3.54407455        1.29396891  H
            atom         8.45912829        0.54898044        2.81741700  H
            atom         7.54700853        2.45370824        6.92375565  H
            atom        -0.99337695        5.44879495        5.40009629  H
            atom         1.40832287        3.95097168        2.76950421  C
            atom         6.96990166        0.95587074        1.34188000  C
            atom         6.05759434        2.04690245        5.44809351  C
            atom         0.49604143        5.04200276        6.87570298  C
            atom         1.00094223        4.92807399        3.03226303  H
            atom         7.37727836        1.93297628        1.07912030  H
            atom         6.46504772        1.06961169        5.18530947  H
            atom         0.08858514        4.06471647        7.13851755  H
            atom         2.57725189        3.49902043        3.44984421  C
            atom         5.80094629        0.50392398        0.66153992  C
            atom         4.88868208        2.49883846        4.76777064  C
            atom         1.66496600        5.49391796        7.55606807  C
            atom         3.20980937        4.26481833        4.43693911  C
            atom         3.34383870        1.26971764        7.88691019  C
            atom         4.25613029        1.73303878        3.78068000  C
            atom         4.12208905        4.72813944        0.33070731  C
            atom         2.80108967        5.24323776        4.69878246  H
            atom         3.75255846        2.24814256        7.62507203  H
            atom         4.66484132        0.75463476        3.51883366  H
            atom         3.71337803        3.74973551        0.59255041  H
            atom         4.34942433        3.79809562        5.10526422  C
            atom         2.20422378        0.80300023        7.21855864  C
            atom         3.11651550        2.19976347        3.11235636  C
            atom         5.26170388        5.19486414        0.99902779  C
            atom         2.47004160        1.43329801        2.10058383  C
            atom         5.90819938        4.42840502        2.01080004  C
            atom         4.99591596        4.56450745        6.11701747  C
            atom         1.55773257        1.56940778        6.20683158  C
            atom         2.88170990        0.45836354        1.84269043  H
            atom         5.49652557        3.45345230        2.26869687  H
            atom         4.58396811        5.54010484        6.37508009  H
            atom         1.96967517        2.54498756        5.94877222  H
            atom         1.35432681        1.91005244        1.45767153  C
            atom         7.02388167        4.90515341        2.65371217  C
            atom         6.11161900        4.08779618        6.75991021  C
            atom         0.44205249        1.09269596        5.56393846  C
            atom         0.87851950        1.30809618        0.68227474  H
            atom         7.49969733        4.30319340        3.42911386  H
            atom         6.58753560        4.68994002        7.53554890  H
            atom        -0.03390578        1.69483409        4.78827543  H
 ------------------------------------------------------------------------
  @ DRIVER MODE: Message from server: STATUS      
  @ DRIVER MODE: Message from server: GETFORCE    
  @ DRIVER MODE: Returning v,forces,stress 
  @ DRIVER MODE: Message from server: STATUS      
  @ DRIVER MODE: Message from server: EXIT        

------------------------------------------------------------------------------
  Final output of selected total energy values:

  The following output summarizes some interesting total energy values
  at the end of a run (AFTER all relaxation, molecular dynamics, etc.).

  | Total energy of the DFT / Hartree-Fock s.c.f. calculation      :         -29107.941238256 eV
  | Final zero-broadening corrected energy (caution - metals only) :         -29107.941238256 eV
  | For reference only, the value of 1 Hartree used in FHI-aims is :             27.211384500 eV
  | For reference only, the overall average (free atom contribution
  | + realspace contribution) of the electrostatic potential after
  | s.c.f. convergence is                                          :             -8.251989176 eV

  Before relying on these values, please be sure to understand exactly which
  total energy value is referred to by a given number. Different objects may
  all carry the same name 'total energy'. Definitions:

  Total energy of the DFT / Hartree-Fock s.c.f. calculation:
  | Note that this energy does not include ANY quantities calculated after the
  | s.c.f. cycle, in particular not ANY RPA, MP2, etc. many-body perturbation terms.

  Final zero-broadening corrected energy:
  | For metallic systems only, a broadening of the occupation numbers at the Fermi
  | level can be extrapolated back to zero broadening by an electron-gas inspired
  | formula. For all systems that are not real metals, this value can be
  | meaningless and should be avoided.

------------------------------------------------------------------------------
  Methods described in the following list of references were used in this FHI-aims run.
  If you publish the results, please make sure to cite these reference if they apply.
  FHI-aims is an academic code, and for our developers (often, Ph.D. students
  and postdocs), scientific credit in the community is essential.
  Thank you for helping us!

  For any use of FHI-aims, please cite:

    Volker Blum, Ralf Gehrke, Felix Hanke, Paula Havu, Ville Havu,
    Xinguo Ren, Karsten Reuter, and Matthias Scheffler
    'Ab initio molecular simulations with numeric atom-centered orbitals'
    Computer Physics Communications 180, 2175-2196 (2009)
    http://doi.org/10.1016/j.cpc.2009.06.022


  The provided symmetry information was generated with SPGlib:

    Atsushi Togo, Yusuke Seto, Dimitar Pashov
    SPGlib 1.7.3 obtained from http://spglib.sourceforge.net
    Copyright (C) 2008 Atsushi Togo


  The DFPT (perturbation by an electric field) part of the code was used.
  Here is the corresponding reference:

    Honghui Shang, Nathaniel Raimbault, Mariana Rossi,
    Christian Carbogno, Patrick Rinke and Matthias Scheffler,
    'All-Electron, Real-Space Perturbation Theory for Homogeneous
    Electric Fields: Theory, Implementation, and Application within dft'
    New Journal of Physics, 20(7):073040, 2018


  The ELSI infrastructure was used in your run to solve the Kohn-Sham electronic structure.
  Please check out http://elsi-interchange.org to learn more.
  If scalability is important for your project, please acknowledge ELSI by citing:

    V. W-z. Yu, F. Corsetti, A. Garcia, W. P. Huhn, M. Jacquelin, W. Jia,
    B. Lange, L. Lin, J. Lu, W. Mi, A. Seifitokaldani, A. Vazquez-Mayagoitia,
    C. Yang, H. Yang, and V. Blum
    'ELSI: A unified software interface for Kohn-Sham electronic structure solvers'
    Computer Physics Communications 222, 267-285 (2018).
    http://doi.org/10.1016/j.cpc.2017.09.007


  For the real-space grid partitioning and parallelization used in this calculation, please cite:

    Ville Havu, Volker Blum, Paula Havu, and Matthias Scheffler,
    'Efficient O(N) integration for all-electron electronic structure calculation'
    'using numerically tabulated basis functions'
    Journal of Computational Physics 228, 8367-8379 (2009).
    http://doi.org/10.1016/j.jcp.2009.08.008

  Of course, there are many other important community references, e.g., those cited in the
  above references. Our list is limited to references that describe implementations in the
  FHI-aims code. The reason is purely practical (length of this list) - please credit others as well.

------------------------------------------------------------
          Leaving FHI-aims.
          Date     :  20250213, Time     :  134714.110

          Computational steps:
          | Number of self-consistency cycles          :         1562
          | Number of SCF (re)initializations          :           40
          | Number of coupled perturbed self-consistency cycles          :            0
          | Number of CPSCF (re)initializations          :            0

          Detailed time accounting                     :  max(cpu_time)    wall_clock(cpu1)
          | Total time                                  :    70969.082 s       70995.116 s
          | Preparation time                            :        0.128 s           0.210 s
          | Boundary condition initalization            :       18.298 s          18.298 s
          | Grid partitioning                           :        8.840 s           8.827 s
          | Preloading free-atom quantities on grid     :       21.989 s          21.994 s
          | Free-atom superposition energy              :        1.604 s           1.607 s
          | Total time for integrations                 :      331.891 s         332.056 s
          | Total time for solution of K.-S. equations  :       27.811 s          27.844 s
          | Total time for density update               :      316.659 s         316.795 s
          | Total time for mixing & preconditioning     :       21.287 s          21.308 s
          | Total time for Hartree multipole update     :        1.438 s           1.427 s
          | Total time for Hartree multipole sum        :      167.624 s         167.685 s
          | Total time for total energy evaluation      :        0.122 s           0.147 s
          | Total time first_order_DM                   :      195.642 s         195.428 s
          | Total time first_order_density              :    19662.080 s       19641.420 s
          | Total time first_order_potential            :      978.106 s         978.355 s
          | Total time first_order_H                    :    42329.955 s       42342.972 s
          | Total time solving of Sternheimer equations :       31.834 s          31.908 s
          | Total time for dielectric constant          :        0.010 s           0.012 s
          | Total time momentum matrix                  :        0.000 s           0.000 s

          Partial memory accounting:
          | Residual value for overall tracked memory usage across tasks:     0.000000 MB (should be 0.000000 MB)
          | Peak values for overall tracked memory usage:
          |   Minimum:     1058.463 MB (on task  21 after allocating DFPT_pulay_mixing::pulay_mix::alphas)
          |   Maximum:     1058.633 MB (on task   0 after allocating DFPT_pulay_mixing::pulay_mix::alphas)
          |   Average:     1058.547 MB
          | Largest tracked array allocation:
          |   Minimum:      361.034 MB (DFPT_pulay_mixing::initialize_pulay_mixing::X_in_diffs on task   0)
          |   Maximum:      361.034 MB (DFPT_pulay_mixing::initialize_pulay_mixing::X_in_diffs on task   0)
          |   Average:      361.034 MB
          Note:  These values currently only include a subset of arrays which are explicitly tracked.
          The "true" memory usage will be greater.

          Have a nice day.
------------------------------------------------------------
